
     Program PHONON v.6.4.1 starts on 29Oct2019 at 10:38:14 

     This program is part of the open-source Quantum ESPRESSO suite
     for quantum simulation of materials; please cite
         "P. Giannozzi et al., J. Phys.:Condens. Matter 21 395502 (2009);
         "P. Giannozzi et al., J. Phys.:Condens. Matter 29 465901 (2017);
          URL http://www.quantum-espresso.org", 
     in publications or presentations arising from this work. More details at
     http://www.quantum-espresso.org/quote

     Parallel version (MPI), running on    64 processors

     MPI processes distributed on     2 nodes
     K-points division:     npool     =       8
     R & G space division:  proc/nbgrp/npool/nimage =       8

     Reading data from directory:
     ./tmp/ZrN.save/

     IMPORTANT: XC functional enforced from input :
     Exchange-correlation      = PBE ( 1  4  3  4 0 0)
     Any further DFT definition will be discarded
     Please, verify this is what you really want

               file Zr.pbe-mt_fhi.UPF: wavefunction(s)  4f renormalized
               file N.pbe-mt_fhi.UPF: wavefunction(s)  4f renormalized
 
     Parallelization info
     --------------------
     sticks:   dense  smooth     PW     G-vecs:    dense   smooth      PW
     Min          70      70     22                 6328     6328    1040
     Max          71      71     23                 6341     6341    1049
     Sum         561     561    177                50655    50655    8345
 


     Dynamical matrices for ( 3, 3, 1)  uniform grid of q-points
     (   3 q-points):
       N         xq(1)         xq(2)         xq(3) 
       1   0.000000000   0.000000000   0.000000000
       2   0.000000000   0.333333333   0.000000000
       3   0.333333333   0.333333333   0.000000000

     Calculation of q =    0.0000000   0.0000000   0.0000000

     --                                                                         

     bravais-lattice index     =            6
     lattice parameter (alat)  =       5.9540  a.u.
     unit-cell volume          =    1060.8038 (a.u.)^3
     number of atoms/cell      =            4
     number of atomic types    =            2
     kinetic-energy cut-off    =      50.0000  Ry
     charge density cut-off    =     200.0000  Ry
     convergence threshold     =      1.0E-14
     beta                      =       0.7000
     number of iterations used =            4
     Exchange-correlation      = PBE ( 1  4  3  4 0 0)


     celldm(1)=    5.95404  celldm(2)=    0.00000  celldm(3)=    5.02573
     celldm(4)=    0.00000  celldm(5)=    0.00000  celldm(6)=    0.00000

     crystal axes: (cart. coord. in units of alat)
               a(1) = (  1.0000  0.0000  0.0000 )  
               a(2) = (  0.0000  1.0000  0.0000 )  
               a(3) = (  0.0000  0.0000  5.0257 )  

     reciprocal axes: (cart. coord. in units 2 pi/alat)
               b(1) = (  1.0000  0.0000  0.0000 )  
               b(2) = (  0.0000  1.0000  0.0000 )  
               b(3) = (  0.0000  0.0000  0.1990 )  


     Atoms inside the unit cell: 

     Cartesian axes

     site n.  atom      mass           positions (alat units)
        1     Zr  91.2240   tau(    1) = (    1.00000    1.00000    2.17199  )
        2     Zr  91.2240   tau(    2) = (    0.50000    0.50000    2.85371  )
        3     N   14.0067   tau(    3) = (    1.00000    1.00000    2.94136  )
        4     N   14.0067   tau(    4) = (    0.50000    0.50000    2.08441  )

     Computing dynamical matrix for 
                    q = (   0.0000000   0.0000000   0.0000000 )
 
      9 Sym.Ops. (with q -> -q+G )


     G cutoff =  179.5949  (   6341 G-vectors)     FFT grid: ( 27, 27,135)

     number of k points=    15  gaussian smearing, width (Ry)=  0.0100

     PseudoPot. # 1 for Zr read from file:
     /public1/home/sc40125/pseudo/pbe/Zr.pbe-mt_fhi.UPF
     MD5 check sum: c4386e95b382de2b39753e4addfc8b7e
     Pseudo is Norm-conserving, Zval =  4.0
     Generated using FHI98PP, converted with fhi2upf.x v.5.0.2
     Using radial grid of  539 points,  3 beta functions with: 
                l(1) =   0
                l(2) =   2
                l(3) =   3

     PseudoPot. # 2 for N  read from file:
     /public1/home/sc40125/pseudo/pbe/N.pbe-mt_fhi.UPF
     MD5 check sum: e15e723d2596c7aaeca87f2bd8795892
     Pseudo is Norm-conserving, Zval =  5.0
     Generated using FHI98PP, converted with fhi2upf.x v.5.0.2
     Using radial grid of  467 points,  3 beta functions with: 
                l(1) =   0
                l(2) =   1
                l(3) =   3

     Mode symmetry, C_4v (4mm)  point group:


     Atomic displacements:
     There are   8 irreducible representations

     Representation     1      1 modes -A_1  G_1 D_1  To be done

     Representation     2      1 modes -A_1  G_1 D_1  To be done

     Representation     3      1 modes -A_1  G_1 D_1  To be done

     Representation     4      1 modes -A_1  G_1 D_1  To be done

     Representation     5      2 modes -E    G_5 D_5  To be done

     Representation     6      2 modes -E    G_5 D_5  To be done

     Representation     7      2 modes -E    G_5 D_5  To be done

     Representation     8      2 modes -E    G_5 D_5  To be done



     Alpha used in Ewald sum =   2.0000
     PHONON       :      0.40s CPU      0.78s WALL



     Representation #  1 mode #   1

     Self-consistent Calculation
 
     Pert. #  1: Fermi energy shift (Ry) =     4.0140E-01     0.0000E+00

      iter #   1 total cpu time :     1.0 secs   av.it.:   8.3
      thresh= 1.000E-02 alpha_mix =  0.700 |ddv_scf|^2 =  4.750E-05
 
     Pert. #  1: Fermi energy shift (Ry) =    -7.0513E-01     0.0000E+00

      iter #   2 total cpu time :     1.3 secs   av.it.:  14.3
      thresh= 6.892E-04 alpha_mix =  0.700 |ddv_scf|^2 =  1.186E-03
 
     Pert. #  1: Fermi energy shift (Ry) =    -4.1499E-01     0.0000E+00

      iter #   3 total cpu time :     1.5 secs   av.it.:  10.8
      thresh= 3.444E-03 alpha_mix =  0.700 |ddv_scf|^2 =  4.921E-06
 
     Pert. #  1: Fermi energy shift (Ry) =     1.6891E-03     0.0000E+00

      iter #   4 total cpu time :     1.8 secs   av.it.:  12.7
      thresh= 2.218E-04 alpha_mix =  0.700 |ddv_scf|^2 =  8.681E-08
 
     Pert. #  1: Fermi energy shift (Ry) =    -1.2478E-02     0.0000E+00

      iter #   5 total cpu time :     2.0 secs   av.it.:  13.6
      thresh= 2.946E-05 alpha_mix =  0.700 |ddv_scf|^2 =  1.324E-08
 
     Pert. #  1: Fermi energy shift (Ry) =    -1.1378E-02     0.0000E+00

      iter #   6 total cpu time :     2.3 secs   av.it.:  13.8
      thresh= 1.151E-05 alpha_mix =  0.700 |ddv_scf|^2 =  2.384E-09
 
     Pert. #  1: Fermi energy shift (Ry) =    -1.2409E-02     0.0000E+00

      iter #   7 total cpu time :     2.5 secs   av.it.:  12.7
      thresh= 4.883E-06 alpha_mix =  0.700 |ddv_scf|^2 =  3.643E-10
 
     Pert. #  1: Fermi energy shift (Ry) =    -1.3014E-02     0.0000E+00

      iter #   8 total cpu time :     2.7 secs   av.it.:  12.1
      thresh= 1.909E-06 alpha_mix =  0.700 |ddv_scf|^2 =  2.752E-12
 
     Pert. #  1: Fermi energy shift (Ry) =    -1.3089E-02     0.0000E+00

      iter #   9 total cpu time :     3.0 secs   av.it.:  14.0
      thresh= 1.659E-07 alpha_mix =  0.700 |ddv_scf|^2 =  1.788E-12
 
     Pert. #  1: Fermi energy shift (Ry) =    -1.3269E-02     0.0000E+00

      iter #  10 total cpu time :     3.2 secs   av.it.:  14.2
      thresh= 1.337E-07 alpha_mix =  0.700 |ddv_scf|^2 =  1.236E-13
 
     Pert. #  1: Fermi energy shift (Ry) =    -1.3168E-02     0.0000E+00

      iter #  11 total cpu time :     3.5 secs   av.it.:  13.6
      thresh= 3.515E-08 alpha_mix =  0.700 |ddv_scf|^2 =  4.559E-14
 
     Pert. #  1: Fermi energy shift (Ry) =    -1.3241E-02     0.0000E+00

      iter #  12 total cpu time :     3.7 secs   av.it.:  14.3
      thresh= 2.135E-08 alpha_mix =  0.700 |ddv_scf|^2 =  1.490E-14
 
     Pert. #  1: Fermi energy shift (Ry) =    -1.3232E-02     0.0000E+00

      iter #  13 total cpu time :     4.0 secs   av.it.:  14.9
      thresh= 1.221E-08 alpha_mix =  0.700 |ddv_scf|^2 =  1.667E-14
 
     Pert. #  1: Fermi energy shift (Ry) =    -1.3237E-02     0.0000E+00

      iter #  14 total cpu time :     4.3 secs   av.it.:  14.0
      thresh= 1.291E-08 alpha_mix =  0.700 |ddv_scf|^2 =  3.050E-15

     End of self-consistent calculation

     Convergence has been achieved 


     Representation #  2 mode #   2

     Self-consistent Calculation
 
     Pert. #  1: Fermi energy shift (Ry) =     5.6742E-01     0.0000E+00

      iter #   1 total cpu time :     4.5 secs   av.it.:   9.0
      thresh= 1.000E-02 alpha_mix =  0.700 |ddv_scf|^2 =  8.618E-05
 
     Pert. #  1: Fermi energy shift (Ry) =    -1.4551E+00     0.0000E+00

      iter #   2 total cpu time :     4.8 secs   av.it.:  14.5
      thresh= 9.283E-04 alpha_mix =  0.700 |ddv_scf|^2 =  1.798E-03
 
     Pert. #  1: Fermi energy shift (Ry) =    -8.1585E-01     0.0000E+00

      iter #   3 total cpu time :     5.0 secs   av.it.:  11.1
      thresh= 4.241E-03 alpha_mix =  0.700 |ddv_scf|^2 =  2.987E-05
 
     Pert. #  1: Fermi energy shift (Ry) =    -4.5285E-02     0.0000E+00

      iter #   4 total cpu time :     5.2 secs   av.it.:  12.5
      thresh= 5.466E-04 alpha_mix =  0.700 |ddv_scf|^2 =  5.509E-07
 
     Pert. #  1: Fermi energy shift (Ry) =    -3.5601E-02     0.0000E+00

      iter #   5 total cpu time :     5.5 secs   av.it.:  13.6
      thresh= 7.422E-05 alpha_mix =  0.700 |ddv_scf|^2 =  1.709E-07
 
     Pert. #  1: Fermi energy shift (Ry) =    -2.7926E-02     0.0000E+00

      iter #   6 total cpu time :     5.7 secs   av.it.:  13.3
      thresh= 4.134E-05 alpha_mix =  0.700 |ddv_scf|^2 =  2.665E-08
 
     Pert. #  1: Fermi energy shift (Ry) =    -2.5532E-02     0.0000E+00

      iter #   7 total cpu time :     6.0 secs   av.it.:  13.2
      thresh= 1.632E-05 alpha_mix =  0.700 |ddv_scf|^2 =  1.459E-10
 
     Pert. #  1: Fermi energy shift (Ry) =    -2.4368E-02     0.0000E+00

      iter #   8 total cpu time :     6.2 secs   av.it.:  13.4
      thresh= 1.208E-06 alpha_mix =  0.700 |ddv_scf|^2 =  4.466E-11
 
     Pert. #  1: Fermi energy shift (Ry) =    -2.3683E-02     0.0000E+00

      iter #   9 total cpu time :     6.5 secs   av.it.:  14.3
      thresh= 6.683E-07 alpha_mix =  0.700 |ddv_scf|^2 =  1.334E-11
 
     Pert. #  1: Fermi energy shift (Ry) =    -2.2556E-02     0.0000E+00

      iter #  10 total cpu time :     6.7 secs   av.it.:  15.2
      thresh= 3.652E-07 alpha_mix =  0.700 |ddv_scf|^2 =  5.663E-12
 
     Pert. #  1: Fermi energy shift (Ry) =    -2.3120E-02     0.0000E+00

      iter #  11 total cpu time :     7.0 secs   av.it.:  13.5
      thresh= 2.380E-07 alpha_mix =  0.700 |ddv_scf|^2 =  7.842E-13
 
     Pert. #  1: Fermi energy shift (Ry) =    -2.3097E-02     0.0000E+00

      iter #  12 total cpu time :     7.2 secs   av.it.:  13.5
      thresh= 8.856E-08 alpha_mix =  0.700 |ddv_scf|^2 =  1.917E-14
 
     Pert. #  1: Fermi energy shift (Ry) =    -2.3065E-02     0.0000E+00

      iter #  13 total cpu time :     7.5 secs   av.it.:  15.1
      thresh= 1.385E-08 alpha_mix =  0.700 |ddv_scf|^2 =  1.248E-13
 
     Pert. #  1: Fermi energy shift (Ry) =    -2.3056E-02     0.0000E+00

      iter #  14 total cpu time :     7.8 secs   av.it.:  13.5
      thresh= 3.532E-08 alpha_mix =  0.700 |ddv_scf|^2 =  7.922E-15

     End of self-consistent calculation

     Convergence has been achieved 


     Representation #  3 mode #   3

     Self-consistent Calculation
 
     Pert. #  1: Fermi energy shift (Ry) =    -5.6762E-01     0.0000E+00

      iter #   1 total cpu time :     8.0 secs   av.it.:   9.0
      thresh= 1.000E-02 alpha_mix =  0.700 |ddv_scf|^2 =  8.615E-05
 
     Pert. #  1: Fermi energy shift (Ry) =     1.4553E+00     0.0000E+00

      iter #   2 total cpu time :     8.3 secs   av.it.:  14.5
      thresh= 9.282E-04 alpha_mix =  0.700 |ddv_scf|^2 =  1.797E-03
 
     Pert. #  1: Fermi energy shift (Ry) =     8.1596E-01     0.0000E+00

      iter #   3 total cpu time :     8.5 secs   av.it.:  11.0
      thresh= 4.239E-03 alpha_mix =  0.700 |ddv_scf|^2 =  2.989E-05
 
     Pert. #  1: Fermi energy shift (Ry) =     4.5343E-02     0.0000E+00

      iter #   4 total cpu time :     8.7 secs   av.it.:  12.5
      thresh= 5.468E-04 alpha_mix =  0.700 |ddv_scf|^2 =  5.509E-07
 
     Pert. #  1: Fermi energy shift (Ry) =     3.5644E-02     0.0000E+00

      iter #   5 total cpu time :     9.0 secs   av.it.:  13.6
      thresh= 7.422E-05 alpha_mix =  0.700 |ddv_scf|^2 =  1.712E-07
 
     Pert. #  1: Fermi energy shift (Ry) =     2.7953E-02     0.0000E+00

      iter #   6 total cpu time :     9.2 secs   av.it.:  13.3
      thresh= 4.138E-05 alpha_mix =  0.700 |ddv_scf|^2 =  2.671E-08
 
     Pert. #  1: Fermi energy shift (Ry) =     2.5534E-02     0.0000E+00

      iter #   7 total cpu time :     9.4 secs   av.it.:  13.2
      thresh= 1.634E-05 alpha_mix =  0.700 |ddv_scf|^2 =  1.271E-10
 
     Pert. #  1: Fermi energy shift (Ry) =     2.4372E-02     0.0000E+00

      iter #   8 total cpu time :     9.7 secs   av.it.:  13.6
      thresh= 1.127E-06 alpha_mix =  0.700 |ddv_scf|^2 =  3.926E-11
 
     Pert. #  1: Fermi energy shift (Ry) =     2.3699E-02     0.0000E+00

      iter #   9 total cpu time :    10.0 secs   av.it.:  14.4
      thresh= 6.266E-07 alpha_mix =  0.700 |ddv_scf|^2 =  1.269E-11
 
     Pert. #  1: Fermi energy shift (Ry) =     2.2576E-02     0.0000E+00

      iter #  10 total cpu time :    10.2 secs   av.it.:  15.1
      thresh= 3.562E-07 alpha_mix =  0.700 |ddv_scf|^2 =  5.390E-12
 
     Pert. #  1: Fermi energy shift (Ry) =     2.3127E-02     0.0000E+00

      iter #  11 total cpu time :    10.5 secs   av.it.:  13.5
      thresh= 2.322E-07 alpha_mix =  0.700 |ddv_scf|^2 =  7.002E-13
 
     Pert. #  1: Fermi energy shift (Ry) =     2.3112E-02     0.0000E+00

      iter #  12 total cpu time :    10.7 secs   av.it.:  13.4
      thresh= 8.368E-08 alpha_mix =  0.700 |ddv_scf|^2 =  1.635E-14
 
     Pert. #  1: Fermi energy shift (Ry) =     2.3069E-02     0.0000E+00

      iter #  13 total cpu time :    11.0 secs   av.it.:  15.0
      thresh= 1.278E-08 alpha_mix =  0.700 |ddv_scf|^2 =  1.089E-13
 
     Pert. #  1: Fermi energy shift (Ry) =     2.3068E-02     0.0000E+00

      iter #  14 total cpu time :    11.2 secs   av.it.:  13.6
      thresh= 3.301E-08 alpha_mix =  0.700 |ddv_scf|^2 =  1.099E-14
 
     Pert. #  1: Fermi energy shift (Ry) =     2.3050E-02     0.0000E+00

      iter #  15 total cpu time :    11.5 secs   av.it.:  15.2
      thresh= 1.048E-08 alpha_mix =  0.700 |ddv_scf|^2 =  3.206E-15

     End of self-consistent calculation

     Convergence has been achieved 


     Representation #  4 mode #   4

     Self-consistent Calculation
 
     Pert. #  1: Fermi energy shift (Ry) =    -4.0153E-01     0.0000E+00

      iter #   1 total cpu time :    11.7 secs   av.it.:   8.3
      thresh= 1.000E-02 alpha_mix =  0.700 |ddv_scf|^2 =  4.749E-05
 
     Pert. #  1: Fermi energy shift (Ry) =     7.0512E-01     0.0000E+00

      iter #   2 total cpu time :    12.0 secs   av.it.:  14.3
      thresh= 6.891E-04 alpha_mix =  0.700 |ddv_scf|^2 =  1.186E-03
 
     Pert. #  1: Fermi energy shift (Ry) =     4.1492E-01     0.0000E+00

      iter #   3 total cpu time :    12.2 secs   av.it.:  10.8
      thresh= 3.444E-03 alpha_mix =  0.700 |ddv_scf|^2 =  4.921E-06
 
     Pert. #  1: Fermi energy shift (Ry) =    -1.7711E-03     0.0000E+00

      iter #   4 total cpu time :    12.5 secs   av.it.:  12.7
      thresh= 2.218E-04 alpha_mix =  0.700 |ddv_scf|^2 =  8.696E-08
 
     Pert. #  1: Fermi energy shift (Ry) =     1.2404E-02     0.0000E+00

      iter #   5 total cpu time :    12.7 secs   av.it.:  13.6
      thresh= 2.949E-05 alpha_mix =  0.700 |ddv_scf|^2 =  1.330E-08
 
     Pert. #  1: Fermi energy shift (Ry) =     1.1302E-02     0.0000E+00

      iter #   6 total cpu time :    13.0 secs   av.it.:  13.8
      thresh= 1.153E-05 alpha_mix =  0.700 |ddv_scf|^2 =  2.383E-09
 
     Pert. #  1: Fermi energy shift (Ry) =     1.2338E-02     0.0000E+00

      iter #   7 total cpu time :    13.2 secs   av.it.:  12.7
      thresh= 4.882E-06 alpha_mix =  0.700 |ddv_scf|^2 =  3.729E-10
 
     Pert. #  1: Fermi energy shift (Ry) =     1.2939E-02     0.0000E+00

      iter #   8 total cpu time :    13.4 secs   av.it.:  12.1
      thresh= 1.931E-06 alpha_mix =  0.700 |ddv_scf|^2 =  2.769E-12
 
     Pert. #  1: Fermi energy shift (Ry) =     1.3016E-02     0.0000E+00

      iter #   9 total cpu time :    13.7 secs   av.it.:  14.1
      thresh= 1.664E-07 alpha_mix =  0.700 |ddv_scf|^2 =  1.743E-12
 
     Pert. #  1: Fermi energy shift (Ry) =     1.3194E-02     0.0000E+00

      iter #  10 total cpu time :    13.9 secs   av.it.:  14.1
      thresh= 1.320E-07 alpha_mix =  0.700 |ddv_scf|^2 =  1.222E-13
 
     Pert. #  1: Fermi energy shift (Ry) =     1.3094E-02     0.0000E+00

      iter #  11 total cpu time :    14.2 secs   av.it.:  13.5
      thresh= 3.496E-08 alpha_mix =  0.700 |ddv_scf|^2 =  4.545E-14
 
     Pert. #  1: Fermi energy shift (Ry) =     1.3167E-02     0.0000E+00

      iter #  12 total cpu time :    14.4 secs   av.it.:  14.2
      thresh= 2.132E-08 alpha_mix =  0.700 |ddv_scf|^2 =  1.464E-14
 
     Pert. #  1: Fermi energy shift (Ry) =     1.3158E-02     0.0000E+00

      iter #  13 total cpu time :    14.7 secs   av.it.:  14.9
      thresh= 1.210E-08 alpha_mix =  0.700 |ddv_scf|^2 =  1.689E-14
 
     Pert. #  1: Fermi energy shift (Ry) =     1.3163E-02     0.0000E+00

      iter #  14 total cpu time :    15.0 secs   av.it.:  14.0
      thresh= 1.300E-08 alpha_mix =  0.700 |ddv_scf|^2 =  3.245E-15

     End of self-consistent calculation

     Convergence has been achieved 


     Representation #  5 modes #   5  6

     Self-consistent Calculation
 
     Pert. #  1: Fermi energy shift (Ry) =     0.0000E+00     0.0000E+00
     Pert. #  2: Fermi energy shift (Ry) =    -2.5849E-26     0.0000E+00

      iter #   1 total cpu time :    15.4 secs   av.it.:   7.8
      thresh= 1.000E-02 alpha_mix =  0.700 |ddv_scf|^2 =  1.168E-07
 
     Pert. #  1: Fermi energy shift (Ry) =    -6.4623E-27     0.0000E+00
     Pert. #  2: Fermi energy shift (Ry) =    -6.4623E-27     0.0000E+00

      iter #   2 total cpu time :    15.9 secs   av.it.:  16.5
      thresh= 3.417E-05 alpha_mix =  0.700 |ddv_scf|^2 =  3.647E-09
 
     Pert. #  1: Fermi energy shift (Ry) =     0.0000E+00     0.0000E+00
     Pert. #  2: Fermi energy shift (Ry) =     6.4623E-27     0.0000E+00

      iter #   3 total cpu time :    16.4 secs   av.it.:  16.4
      thresh= 6.039E-06 alpha_mix =  0.700 |ddv_scf|^2 =  2.372E-11
 
     Pert. #  1: Fermi energy shift (Ry) =    -1.2925E-26     0.0000E+00
     Pert. #  2: Fermi energy shift (Ry) =    -1.3732E-26     0.0000E+00

      iter #   4 total cpu time :    16.9 secs   av.it.:  15.8
      thresh= 4.871E-07 alpha_mix =  0.700 |ddv_scf|^2 =  1.565E-12
 
     Pert. #  1: Fermi energy shift (Ry) =     0.0000E+00     0.0000E+00
     Pert. #  2: Fermi energy shift (Ry) =     3.2312E-27     0.0000E+00

      iter #   5 total cpu time :    17.4 secs   av.it.:  16.3
      thresh= 1.251E-07 alpha_mix =  0.700 |ddv_scf|^2 =  5.513E-14
 
     Pert. #  1: Fermi energy shift (Ry) =     1.2925E-26     0.0000E+00
     Pert. #  2: Fermi energy shift (Ry) =     1.2925E-26     0.0000E+00

      iter #   6 total cpu time :    17.9 secs   av.it.:  16.5
      thresh= 2.348E-08 alpha_mix =  0.700 |ddv_scf|^2 =  4.041E-15

     End of self-consistent calculation

     Convergence has been achieved 


     Representation #  6 modes #   7  8

     Self-consistent Calculation
 
     Pert. #  1: Fermi energy shift (Ry) =     9.6935E-27     0.0000E+00
     Pert. #  2: Fermi energy shift (Ry) =     0.0000E+00     0.0000E+00

      iter #   1 total cpu time :    18.2 secs   av.it.:   6.8
      thresh= 1.000E-02 alpha_mix =  0.700 |ddv_scf|^2 =  4.989E-09
 
     Pert. #  1: Fermi energy shift (Ry) =     3.1019E-25     0.0000E+00
     Pert. #  2: Fermi energy shift (Ry) =     4.1359E-25     0.0000E+00

      iter #   2 total cpu time :    18.7 secs   av.it.:  16.0
      thresh= 7.063E-06 alpha_mix =  0.700 |ddv_scf|^2 =  3.088E-10
 
     Pert. #  1: Fermi energy shift (Ry) =    -1.0340E-25     0.0000E+00
     Pert. #  2: Fermi energy shift (Ry) =     0.0000E+00     0.0000E+00

      iter #   3 total cpu time :    19.2 secs   av.it.:  15.5
      thresh= 1.757E-06 alpha_mix =  0.700 |ddv_scf|^2 =  3.132E-11
 
     Pert. #  1: Fermi energy shift (Ry) =    -4.1359E-25     0.0000E+00
     Pert. #  2: Fermi energy shift (Ry) =    -4.1359E-25     0.0000E+00

      iter #   4 total cpu time :    19.6 secs   av.it.:  15.7
      thresh= 5.597E-07 alpha_mix =  0.700 |ddv_scf|^2 =  6.931E-13
 
     Pert. #  1: Fermi energy shift (Ry) =     4.1359E-25     0.0000E+00
     Pert. #  2: Fermi energy shift (Ry) =     4.1359E-25     0.0000E+00

      iter #   5 total cpu time :    20.1 secs   av.it.:  16.0
      thresh= 8.325E-08 alpha_mix =  0.700 |ddv_scf|^2 =  6.055E-14
 
     Pert. #  1: Fermi energy shift (Ry) =     2.0680E-25     0.0000E+00
     Pert. #  2: Fermi energy shift (Ry) =     0.0000E+00     0.0000E+00

      iter #   6 total cpu time :    20.6 secs   av.it.:  16.6
      thresh= 2.461E-08 alpha_mix =  0.700 |ddv_scf|^2 =  8.142E-16

     End of self-consistent calculation

     Convergence has been achieved 


     Representation #  7 modes #   9 10

     Self-consistent Calculation
 
     Pert. #  1: Fermi energy shift (Ry) =     0.0000E+00     0.0000E+00
     Pert. #  2: Fermi energy shift (Ry) =     1.2925E-26     0.0000E+00

      iter #   1 total cpu time :    21.0 secs   av.it.:   7.8
      thresh= 1.000E-02 alpha_mix =  0.700 |ddv_scf|^2 =  1.169E-07
 
     Pert. #  1: Fermi energy shift (Ry) =     1.2925E-26     0.0000E+00
     Pert. #  2: Fermi energy shift (Ry) =     0.0000E+00     0.0000E+00

      iter #   2 total cpu time :    21.5 secs   av.it.:  16.5
      thresh= 3.419E-05 alpha_mix =  0.700 |ddv_scf|^2 =  3.666E-09
 
     Pert. #  1: Fermi energy shift (Ry) =     2.5849E-26     0.0000E+00
     Pert. #  2: Fermi energy shift (Ry) =     5.1699E-26     0.0000E+00

      iter #   3 total cpu time :    22.0 secs   av.it.:  16.4
      thresh= 6.055E-06 alpha_mix =  0.700 |ddv_scf|^2 =  2.647E-11
 
     Pert. #  1: Fermi energy shift (Ry) =    -2.5849E-26     0.0000E+00
     Pert. #  2: Fermi energy shift (Ry) =    -5.1699E-26     0.0000E+00

      iter #   4 total cpu time :    22.5 secs   av.it.:  15.7
      thresh= 5.145E-07 alpha_mix =  0.700 |ddv_scf|^2 =  1.610E-12
 
     Pert. #  1: Fermi energy shift (Ry) =    -2.5849E-26     0.0000E+00
     Pert. #  2: Fermi energy shift (Ry) =     0.0000E+00     0.0000E+00

      iter #   5 total cpu time :    23.0 secs   av.it.:  16.3
      thresh= 1.269E-07 alpha_mix =  0.700 |ddv_scf|^2 =  5.493E-14
 
     Pert. #  1: Fermi energy shift (Ry) =     0.0000E+00     0.0000E+00
     Pert. #  2: Fermi energy shift (Ry) =     0.0000E+00     0.0000E+00

      iter #   6 total cpu time :    23.5 secs   av.it.:  16.5
      thresh= 2.344E-08 alpha_mix =  0.700 |ddv_scf|^2 =  4.172E-15

     End of self-consistent calculation

     Convergence has been achieved 


     Representation #  8 modes #  11 12

     Self-consistent Calculation
 
     Pert. #  1: Fermi energy shift (Ry) =     0.0000E+00     0.0000E+00
     Pert. #  2: Fermi energy shift (Ry) =     0.0000E+00     0.0000E+00

      iter #   1 total cpu time :    23.8 secs   av.it.:   6.8
      thresh= 1.000E-02 alpha_mix =  0.700 |ddv_scf|^2 =  5.225E-09
 
     Pert. #  1: Fermi energy shift (Ry) =    -2.0680E-25     0.0000E+00
     Pert. #  2: Fermi energy shift (Ry) =     0.0000E+00     0.0000E+00

      iter #   2 total cpu time :    24.3 secs   av.it.:  15.9
      thresh= 7.229E-06 alpha_mix =  0.700 |ddv_scf|^2 =  3.328E-10
 
     Pert. #  1: Fermi energy shift (Ry) =    -2.0680E-25     0.0000E+00
     Pert. #  2: Fermi energy shift (Ry) =     0.0000E+00     0.0000E+00

      iter #   3 total cpu time :    24.8 secs   av.it.:  15.4
      thresh= 1.824E-06 alpha_mix =  0.700 |ddv_scf|^2 =  3.253E-11
 
     Pert. #  1: Fermi energy shift (Ry) =     4.1359E-25     0.0000E+00
     Pert. #  2: Fermi energy shift (Ry) =     4.1359E-25     0.0000E+00

      iter #   4 total cpu time :    25.3 secs   av.it.:  15.6
      thresh= 5.703E-07 alpha_mix =  0.700 |ddv_scf|^2 =  6.960E-13
 
     Pert. #  1: Fermi energy shift (Ry) =    -2.0680E-25     0.0000E+00
     Pert. #  2: Fermi energy shift (Ry) =     0.0000E+00     0.0000E+00

      iter #   5 total cpu time :    25.7 secs   av.it.:  16.0
      thresh= 8.343E-08 alpha_mix =  0.700 |ddv_scf|^2 =  6.102E-14
 
     Pert. #  1: Fermi energy shift (Ry) =     4.1359E-25     0.0000E+00
     Pert. #  2: Fermi energy shift (Ry) =     4.1359E-25     0.0000E+00

      iter #   6 total cpu time :    26.2 secs   av.it.:  16.5
      thresh= 2.470E-08 alpha_mix =  0.700 |ddv_scf|^2 =  8.109E-16

     End of self-consistent calculation

     Convergence has been achieved 
 
     Number of q in the star =    1
     List of q in the star:
          1   0.000000000   0.000000000   0.000000000

     Diagonalizing the dynamical matrix

     q = (    0.000000000   0.000000000   0.000000000 ) 

 **************************************************************************
     freq (    1) =       0.770248 [THz] =      25.692693 [cm-1]
     freq (    2) =       1.322425 [THz] =      44.111359 [cm-1]
     freq (    3) =       1.322425 [THz] =      44.111359 [cm-1]
     freq (    4) =       4.349538 [THz] =     145.084964 [cm-1]
     freq (    5) =       4.349538 [THz] =     145.084964 [cm-1]
     freq (    6) =       6.080703 [THz] =     202.830419 [cm-1]
     freq (    7) =      11.221923 [THz] =     374.323075 [cm-1]
     freq (    8) =      13.864134 [THz] =     462.457735 [cm-1]
     freq (    9) =      16.045164 [THz] =     535.209077 [cm-1]
     freq (   10) =      16.045164 [THz] =     535.209077 [cm-1]
     freq (   11) =      16.932206 [THz] =     564.797582 [cm-1]
     freq (   12) =      16.932206 [THz] =     564.797582 [cm-1]
 **************************************************************************

     Mode symmetry, C_4v (4mm)  point group:

     freq (  1 -  1) =         25.7  [cm-1]   --> A_1  G_1 D_1    I+R
     freq (  2 -  3) =         44.1  [cm-1]   --> E    G_5 D_5    I+R
     freq (  4 -  5) =        145.1  [cm-1]   --> E    G_5 D_5    I+R
     freq (  6 -  6) =        202.8  [cm-1]   --> A_1  G_1 D_1    I+R
     freq (  7 -  7) =        374.3  [cm-1]   --> A_1  G_1 D_1    I+R
     freq (  8 -  8) =        462.5  [cm-1]   --> A_1  G_1 D_1    I+R
     freq (  9 - 10) =        535.2  [cm-1]   --> E    G_5 D_5    I+R
     freq ( 11 - 12) =        564.8  [cm-1]   --> E    G_5 D_5    I+R

     Calculation of q =    0.0000000   0.3333333   0.0000000

     Subspace diagonalization in iterative solution of the eigenvalue problem:
     one sub-group per band group will be used
     scalapack distributed-memory algorithm (size of sub-group:  2*  2 procs)

 
     Parallelization info
     --------------------
     sticks:   dense  smooth     PW     G-vecs:    dense   smooth      PW
     Min          70      70     22                 6328     6328    1146
     Max          71      71     23                 6341     6341    1167
     Sum         561     561    177                50655    50655    9197
 

     Title: 
     --                                                                         


     bravais-lattice index     =            6
     lattice parameter (alat)  =       5.9540  a.u.
     unit-cell volume          =    1060.8038 (a.u.)^3
     number of atoms/cell      =            4
     number of atomic types    =            2
     number of electrons       =        18.00
     number of Kohn-Sham states=           13
     kinetic-energy cutoff     =      50.0000  Ry
     charge density cutoff     =     200.0000  Ry
     Exchange-correlation      = PBE ( 1  4  3  4 0 0)

     celldm(1)=   5.954042  celldm(2)=   0.000000  celldm(3)=   5.025732
     celldm(4)=   0.000000  celldm(5)=   0.000000  celldm(6)=   0.000000

     crystal axes: (cart. coord. in units of alat)
               a(1) = (   1.000000   0.000000   0.000000 )  
               a(2) = (   0.000000   1.000000   0.000000 )  
               a(3) = (   0.000000   0.000000   5.025732 )  

     reciprocal axes: (cart. coord. in units 2 pi/alat)
               b(1) = (  1.000000  0.000000  0.000000 )  
               b(2) = (  0.000000  1.000000  0.000000 )  
               b(3) = (  0.000000  0.000000  0.198976 )  


     PseudoPot. # 1 for Zr read from file:
     /public1/home/sc40125/pseudo/pbe/Zr.pbe-mt_fhi.UPF
     MD5 check sum: c4386e95b382de2b39753e4addfc8b7e
     Pseudo is Norm-conserving, Zval =  4.0
     Generated using FHI98PP, converted with fhi2upf.x v.5.0.2
     Using radial grid of  539 points,  3 beta functions with: 
                l(1) =   0
                l(2) =   2
                l(3) =   3

     PseudoPot. # 2 for N  read from file:
     /public1/home/sc40125/pseudo/pbe/N.pbe-mt_fhi.UPF
     MD5 check sum: e15e723d2596c7aaeca87f2bd8795892
     Pseudo is Norm-conserving, Zval =  5.0
     Generated using FHI98PP, converted with fhi2upf.x v.5.0.2
     Using radial grid of  467 points,  3 beta functions with: 
                l(1) =   0
                l(2) =   1
                l(3) =   3

     atomic species   valence    mass     pseudopotential
        Zr             4.00    91.22400     Zr( 1.00)
        N              5.00    14.00670     N ( 1.00)

      8 Sym. Ops. (no inversion) found



   Cartesian axes

     site n.     atom                  positions (alat units)
         1           Zr  tau(   1) = (   1.0000000   1.0000000   2.1719903  )
         2           Zr  tau(   2) = (   0.5000000   0.5000000   2.8537082  )
         3           N   tau(   3) = (   1.0000000   1.0000000   2.9413595  )
         4           N   tau(   4) = (   0.5000000   0.5000000   2.0844054  )

     number of k points=    90  gaussian smearing, width (Ry)=  0.0100
                       cart. coord. in units 2pi/alat
        k(    1) = (   0.0000000   0.0000000   0.0000000), wk =   0.0246914
        k(    2) = (   0.0000000   0.3333333   0.0000000), wk =   0.0000000
        k(    3) = (   0.0000000   0.1111111   0.0000000), wk =   0.0246914
        k(    4) = (   0.0000000   0.4444444   0.0000000), wk =   0.0000000
        k(    5) = (   0.0000000   0.2222222   0.0000000), wk =   0.0246914
        k(    6) = (   0.0000000   0.5555556   0.0000000), wk =   0.0000000
        k(    7) = (   0.0000000   0.3333333   0.0000000), wk =   0.0246914
        k(    8) = (   0.0000000   0.6666667   0.0000000), wk =   0.0000000
        k(    9) = (   0.0000000   0.4444444   0.0000000), wk =   0.0246914
        k(   10) = (   0.0000000   0.7777778   0.0000000), wk =   0.0000000
        k(   11) = (   0.1111111   0.1111111   0.0000000), wk =   0.0493827
        k(   12) = (   0.1111111   0.4444444   0.0000000), wk =   0.0000000
        k(   13) = (   0.1111111   0.2222222   0.0000000), wk =   0.0493827
        k(   14) = (   0.1111111   0.5555556   0.0000000), wk =   0.0000000
        k(   15) = (   0.1111111   0.3333333   0.0000000), wk =   0.0493827
        k(   16) = (   0.1111111   0.6666667   0.0000000), wk =   0.0000000
        k(   17) = (   0.1111111   0.4444444   0.0000000), wk =   0.0493827
        k(   18) = (   0.1111111   0.7777778   0.0000000), wk =   0.0000000
        k(   19) = (   0.2222222   0.2222222   0.0000000), wk =   0.0493827
        k(   20) = (   0.2222222   0.5555556   0.0000000), wk =   0.0000000
        k(   21) = (   0.2222222   0.3333333   0.0000000), wk =   0.0493827
        k(   22) = (   0.2222222   0.6666667   0.0000000), wk =   0.0000000
        k(   23) = (   0.2222222   0.4444444   0.0000000), wk =   0.0493827
        k(   24) = (   0.2222222   0.7777778   0.0000000), wk =   0.0000000
        k(   25) = (   0.3333333   0.3333333   0.0000000), wk =   0.0493827
        k(   26) = (   0.3333333   0.6666667   0.0000000), wk =   0.0000000
        k(   27) = (   0.3333333   0.4444444   0.0000000), wk =   0.0493827
        k(   28) = (   0.3333333   0.7777778   0.0000000), wk =   0.0000000
        k(   29) = (   0.4444444   0.4444444   0.0000000), wk =   0.0493827
        k(   30) = (   0.4444444   0.7777778   0.0000000), wk =   0.0000000
        k(   31) = (   0.1111111   0.0000000   0.0000000), wk =   0.0493827
        k(   32) = (   0.1111111   0.3333333   0.0000000), wk =   0.0000000
        k(   33) = (   0.0000000  -0.1111111   0.0000000), wk =   0.0246914
        k(   34) = (   0.0000000   0.2222222   0.0000000), wk =   0.0000000
        k(   35) = (   0.2222222   0.0000000   0.0000000), wk =   0.0493827
        k(   36) = (   0.2222222   0.3333333   0.0000000), wk =   0.0000000
        k(   37) = (   0.0000000  -0.2222222   0.0000000), wk =   0.0246914
        k(   38) = (   0.0000000   0.1111111   0.0000000), wk =   0.0000000
        k(   39) = (   0.3333333   0.0000000   0.0000000), wk =   0.0493827
        k(   40) = (   0.3333333   0.3333333   0.0000000), wk =   0.0000000
        k(   41) = (   0.0000000  -0.3333333   0.0000000), wk =   0.0246914
        k(   42) = (   0.0000000   0.0000000   0.0000000), wk =   0.0000000
        k(   43) = (   0.4444444   0.0000000   0.0000000), wk =   0.0493827
        k(   44) = (   0.4444444   0.3333333   0.0000000), wk =   0.0000000
        k(   45) = (   0.0000000  -0.4444444   0.0000000), wk =   0.0246914
        k(   46) = (   0.0000000  -0.1111111   0.0000000), wk =   0.0000000
        k(   47) = (   0.1111111  -0.1111111   0.0000000), wk =   0.0493827
        k(   48) = (   0.1111111   0.2222222   0.0000000), wk =   0.0000000
        k(   49) = (   0.2222222  -0.1111111   0.0000000), wk =   0.0493827
        k(   50) = (   0.2222222   0.2222222   0.0000000), wk =   0.0000000
        k(   51) = (  -0.2222222   0.1111111   0.0000000), wk =   0.0493827
        k(   52) = (  -0.2222222   0.4444444   0.0000000), wk =   0.0000000
        k(   53) = (   0.1111111  -0.2222222   0.0000000), wk =   0.0493827
        k(   54) = (   0.1111111   0.1111111   0.0000000), wk =   0.0000000
        k(   55) = (   0.3333333  -0.1111111   0.0000000), wk =   0.0493827
        k(   56) = (   0.3333333   0.2222222   0.0000000), wk =   0.0000000
        k(   57) = (  -0.3333333   0.1111111   0.0000000), wk =   0.0493827
        k(   58) = (  -0.3333333   0.4444444   0.0000000), wk =   0.0000000
        k(   59) = (   0.1111111  -0.3333333   0.0000000), wk =   0.0493827
        k(   60) = (   0.1111111   0.0000000   0.0000000), wk =   0.0000000
        k(   61) = (   0.4444444  -0.1111111   0.0000000), wk =   0.0493827
        k(   62) = (   0.4444444   0.2222222   0.0000000), wk =   0.0000000
        k(   63) = (  -0.4444444   0.1111111   0.0000000), wk =   0.0493827
        k(   64) = (  -0.4444444   0.4444444   0.0000000), wk =   0.0000000
        k(   65) = (   0.1111111  -0.4444444   0.0000000), wk =   0.0493827
        k(   66) = (   0.1111111  -0.1111111   0.0000000), wk =   0.0000000
        k(   67) = (   0.2222222  -0.2222222   0.0000000), wk =   0.0493827
        k(   68) = (   0.2222222   0.1111111   0.0000000), wk =   0.0000000
        k(   69) = (   0.3333333  -0.2222222   0.0000000), wk =   0.0493827
        k(   70) = (   0.3333333   0.1111111   0.0000000), wk =   0.0000000
        k(   71) = (  -0.3333333   0.2222222   0.0000000), wk =   0.0493827
        k(   72) = (  -0.3333333   0.5555556   0.0000000), wk =   0.0000000
        k(   73) = (   0.2222222  -0.3333333   0.0000000), wk =   0.0493827
        k(   74) = (   0.2222222   0.0000000   0.0000000), wk =   0.0000000
        k(   75) = (   0.4444444  -0.2222222   0.0000000), wk =   0.0493827
        k(   76) = (   0.4444444   0.1111111   0.0000000), wk =   0.0000000
        k(   77) = (  -0.4444444   0.2222222   0.0000000), wk =   0.0493827
        k(   78) = (  -0.4444444   0.5555556   0.0000000), wk =   0.0000000
        k(   79) = (   0.2222222  -0.4444444   0.0000000), wk =   0.0493827
        k(   80) = (   0.2222222  -0.1111111   0.0000000), wk =   0.0000000
        k(   81) = (   0.3333333  -0.3333333   0.0000000), wk =   0.0493827
        k(   82) = (   0.3333333   0.0000000   0.0000000), wk =   0.0000000
        k(   83) = (   0.4444444  -0.3333333   0.0000000), wk =   0.0493827
        k(   84) = (   0.4444444   0.0000000   0.0000000), wk =   0.0000000
        k(   85) = (  -0.4444444   0.3333333   0.0000000), wk =   0.0493827
        k(   86) = (  -0.4444444   0.6666667   0.0000000), wk =   0.0000000
        k(   87) = (   0.3333333  -0.4444444   0.0000000), wk =   0.0493827
        k(   88) = (   0.3333333  -0.1111111   0.0000000), wk =   0.0000000
        k(   89) = (   0.4444444  -0.4444444   0.0000000), wk =   0.0493827
        k(   90) = (   0.4444444  -0.1111111   0.0000000), wk =   0.0000000

     Dense  grid:    50655 G-vectors     FFT dimensions: (  27,  27, 135)

     Estimated max dynamical RAM per process >       5.24 MB

     Estimated total dynamical RAM >     335.06 MB

     The potential is recalculated from file :
     ./tmp/_ph0/ZrN.q_2/ZrN.save/charge-density

     Starting wfcs are   64 atomic wfcs

     Band Structure Calculation
     Davidson diagonalization with overlap

     ethr =  5.56E-11,  avg # of iterations = 35.8

     total cpu time spent up to now is        3.1 secs

     End of band structure calculation

          k = 0.0000 0.0000 0.0000 (  6347 PWs)   bands (ev):

   -13.2385 -12.9256  -2.4294  -2.3372  -0.5493  -0.4530  -0.4530  -0.2442
    -0.2442   1.2031   1.9937   2.8436   2.8436

          k = 0.0000 0.3333 0.0000 (  6326 PWs)   bands (ev):

   -12.4935 -12.3374  -3.7189  -3.5356  -2.4090  -2.3522  -2.2456  -2.2348
     2.5850   3.0172   3.6757   3.7472   4.6167

          k = 0.0000 0.1111 0.0000 (  6347 PWs)   bands (ev):

   -13.1332 -12.8392  -2.5291  -2.3506  -1.3907  -1.0790  -0.8909  -0.6778
     0.5287   1.8204   2.1228   2.7830   2.9110

          k = 0.0000 0.4444 0.0000 (  6326 PWs)   bands (ev):

   -12.2172 -12.1630  -4.2092  -4.1527  -2.6851  -2.6454  -2.4597  -2.4151
     3.3825   3.6406   4.3040   4.7117   4.7970

          k = 0.0000 0.2222 0.0000 (  6363 PWs)   bands (ev):

   -12.8510 -12.6115  -2.9741  -2.6029  -2.2782  -1.8744  -1.6963  -1.5145
     1.5867   2.4528   2.8946   3.0518   3.1894

          k = 0.0000 0.5556 0.0000 (  6326 PWs)   bands (ev):

   -12.2172 -12.1630  -4.2092  -4.1527  -2.6851  -2.6454  -2.4597  -2.4151
     3.3825   3.6406   4.3040   4.7117   4.7970

          k = 0.0000 0.3333 0.0000 (  6326 PWs)   bands (ev):

   -12.4935 -12.3374  -3.7189  -3.5356  -2.4090  -2.3522  -2.2456  -2.2348
     2.5850   3.0172   3.6757   3.7472   4.6167

          k = 0.0000 0.6667 0.0000 (  6326 PWs)   bands (ev):

   -12.4935 -12.3374  -3.7189  -3.5356  -2.4090  -2.3522  -2.2456  -2.2348
     2.5850   3.0172   3.6757   3.7472   4.6167

          k = 0.0000 0.4444 0.0000 (  6326 PWs)   bands (ev):

   -12.2172 -12.1630  -4.2092  -4.1527  -2.6851  -2.6454  -2.4597  -2.4151
     3.3825   3.6406   4.3040   4.7117   4.7970

          k = 0.0000 0.7778 0.0000 (  6363 PWs)   bands (ev):

   -12.8510 -12.6115  -2.9741  -2.6029  -2.2782  -1.8744  -1.6963  -1.5145
     1.5867   2.4528   2.8946   3.0518   3.1894

          k = 0.1111 0.1111 0.0000 (  6361 PWs)   bands (ev):

   -13.0410 -12.7654  -2.6138  -2.3530  -1.5701  -1.4588  -1.4471  -1.0716
     1.1080   2.2329   2.3768   2.5208   3.2540

          k = 0.1111 0.4444 0.0000 (  6319 PWs)   bands (ev):

   -12.2661 -12.2163  -3.9948  -3.9506  -2.7158  -2.6522  -2.2324  -2.2036
     2.5016   3.3093   4.1135   4.6320   5.2763

          k = 0.1111 0.2222 0.0000 (  6350 PWs)   bands (ev):

   -12.7973 -12.5740  -3.0219  -2.6897  -2.1933  -2.1640  -1.7256  -1.5622
     1.5849   2.5877   2.7888   3.4692   3.7439

          k = 0.1111 0.5556 0.0000 (  6319 PWs)   bands (ev):

   -12.2661 -12.2163  -3.9948  -3.9506  -2.7158  -2.6522  -2.2324  -2.2036
     2.5016   3.3093   4.1135   4.6320   5.2763

          k = 0.1111 0.3333 0.0000 (  6326 PWs)   bands (ev):

   -12.4953 -12.3509  -3.6287  -3.4767  -2.4985  -2.3614  -2.1114  -2.0075
     1.9002   3.1439   3.9276   4.3672   4.5601

          k = 0.1111 0.6667 0.0000 (  6326 PWs)   bands (ev):

   -12.4953 -12.3509  -3.6287  -3.4767  -2.4985  -2.3614  -2.1114  -2.0075
     1.9002   3.1439   3.9276   4.3672   4.5601

          k = 0.1111 0.4444 0.0000 (  6319 PWs)   bands (ev):

   -12.2661 -12.2163  -3.9948  -3.9506  -2.7158  -2.6522  -2.2324  -2.2036
     2.5016   3.3093   4.1135   4.6320   5.2763

          k = 0.1111 0.7778 0.0000 (  6350 PWs)   bands (ev):

   -12.7973 -12.5740  -3.0219  -2.6897  -2.1933  -2.1640  -1.7256  -1.5622
     1.5849   2.5877   2.7888   3.4692   3.7439

          k = 0.2222 0.2222 0.0000 (  6335 PWs)   bands (ev):

   -12.6613 -12.4831  -3.2146  -3.0182  -2.3468  -2.0031  -1.9173  -1.6527
     1.1163   2.9690   3.6926   4.3446   4.3949

          k = 0.2222 0.5556 0.0000 (  6313 PWs)   bands (ev):

   -12.3874 -12.3488  -3.4175  -3.4053  -2.5878  -2.4611  -1.8760  -1.8222
     1.3680   2.2359   4.3012   4.8511   5.5379

          k = 0.2222 0.3333 0.0000 (  6318 PWs)   bands (ev):

   -12.5038 -12.3905  -3.3810  -3.3257  -2.4467  -2.1476  -1.8416  -1.8306
     0.9519   3.2568   3.7001   4.7977   4.8989

          k = 0.2222 0.6667 0.0000 (  6318 PWs)   bands (ev):

   -12.5038 -12.3905  -3.3810  -3.3257  -2.4467  -2.1476  -1.8416  -1.8306
     0.9519   3.2568   3.7001   4.7977   4.8989

          k = 0.2222 0.4444 0.0000 (  6313 PWs)   bands (ev):

   -12.3874 -12.3488  -3.4175  -3.4053  -2.5878  -2.4611  -1.8760  -1.8222
     1.3680   2.2359   4.3012   4.8511   5.5379

          k = 0.2222 0.7778 0.0000 (  6335 PWs)   bands (ev):

   -12.6613 -12.4831  -3.2146  -3.0182  -2.3468  -2.0031  -1.9173  -1.6527
     1.1163   2.9690   3.6926   4.3446   4.3949

          k = 0.3333 0.3333 0.0000 (  6296 PWs)   bands (ev):

   -12.5172 -12.4463  -3.0808  -3.0181  -2.1942  -1.9740  -1.8769  -1.4768
     0.3305   2.2163   4.1745   5.0519   5.4463

          k = 0.3333 0.6667 0.0000 (  6296 PWs)   bands (ev):

   -12.5172 -12.4463  -3.0808  -3.0181  -2.1942  -1.9740  -1.8769  -1.4768
     0.3305   2.2163   4.1745   5.0519   5.4463

          k = 0.3333 0.4444 0.0000 (  6341 PWs)   bands (ev):

   -12.5201 -12.4962  -2.7537  -2.6372  -2.2448  -2.1030  -1.6732  -1.3923
     0.4243   1.1794   4.7122   4.9232   5.4440

          k = 0.3333 0.7778 0.0000 (  6318 PWs)   bands (ev):

   -12.5038 -12.3905  -3.3810  -3.3257  -2.4467  -2.1476  -1.8416  -1.8306
     0.9519   3.2568   3.7001   4.7977   4.8989

          k = 0.4444 0.4444 0.0000 (  6356 PWs)   bands (ev):

   -12.6012 -12.5931  -2.1850  -2.0670  -1.9088  -1.8820  -1.4737  -1.1251
    -0.1180   0.2814   5.0370   5.1995   5.3721

          k = 0.4444 0.7778 0.0000 (  6313 PWs)   bands (ev):

   -12.3874 -12.3488  -3.4175  -3.4053  -2.5878  -2.4611  -1.8760  -1.8222
     1.3680   2.2359   4.3012   4.8511   5.5379

          k = 0.1111 0.0000 0.0000 (  6347 PWs)   bands (ev):

   -13.1332 -12.8392  -2.5291  -2.3506  -1.3907  -1.0790  -0.8909  -0.6778
     0.5287   1.8204   2.1228   2.7830   2.9110

          k = 0.1111 0.3333 0.0000 (  6326 PWs)   bands (ev):

   -12.4953 -12.3509  -3.6287  -3.4767  -2.4985  -2.3614  -2.1114  -2.0075
     1.9002   3.1439   3.9276   4.3672   4.5601

          k = 0.0000-0.1111 0.0000 (  6347 PWs)   bands (ev):

   -13.1332 -12.8392  -2.5291  -2.3506  -1.3907  -1.0790  -0.8909  -0.6778
     0.5287   1.8204   2.1228   2.7830   2.9110

          k = 0.0000 0.2222 0.0000 (  6363 PWs)   bands (ev):

   -12.8510 -12.6115  -2.9741  -2.6029  -2.2782  -1.8744  -1.6963  -1.5145
     1.5867   2.4528   2.8946   3.0518   3.1894

          k = 0.2222 0.0000 0.0000 (  6363 PWs)   bands (ev):

   -12.8510 -12.6115  -2.9741  -2.6029  -2.2782  -1.8744  -1.6963  -1.5145
     1.5867   2.4528   2.8946   3.0518   3.1894

          k = 0.2222 0.3333 0.0000 (  6318 PWs)   bands (ev):

   -12.5038 -12.3905  -3.3810  -3.3257  -2.4467  -2.1476  -1.8416  -1.8306
     0.9519   3.2568   3.7001   4.7977   4.8989

          k = 0.0000-0.2222 0.0000 (  6363 PWs)   bands (ev):

   -12.8510 -12.6115  -2.9741  -2.6029  -2.2782  -1.8744  -1.6963  -1.5145
     1.5867   2.4528   2.8946   3.0518   3.1894

          k = 0.0000 0.1111 0.0000 (  6347 PWs)   bands (ev):

   -13.1332 -12.8392  -2.5291  -2.3506  -1.3907  -1.0790  -0.8909  -0.6778
     0.5287   1.8204   2.1228   2.7830   2.9110

          k = 0.3333 0.0000 0.0000 (  6326 PWs)   bands (ev):

   -12.4935 -12.3374  -3.7189  -3.5356  -2.4090  -2.3522  -2.2456  -2.2348
     2.5850   3.0172   3.6757   3.7472   4.6167

          k = 0.3333 0.3333 0.0000 (  6296 PWs)   bands (ev):

   -12.5172 -12.4463  -3.0808  -3.0181  -2.1942  -1.9740  -1.8769  -1.4768
     0.3305   2.2163   4.1745   5.0519   5.4463

          k = 0.0000-0.3333 0.0000 (  6326 PWs)   bands (ev):

   -12.4935 -12.3374  -3.7189  -3.5356  -2.4090  -2.3522  -2.2456  -2.2348
     2.5850   3.0172   3.6757   3.7472   4.6167

          k = 0.0000 0.0000 0.0000 (  6347 PWs)   bands (ev):

   -13.2385 -12.9256  -2.4294  -2.3372  -0.5493  -0.4530  -0.4530  -0.2442
    -0.2442   1.2031   1.9937   2.8436   2.8436

          k = 0.4444 0.0000 0.0000 (  6326 PWs)   bands (ev):

   -12.2172 -12.1630  -4.2092  -4.1527  -2.6851  -2.6454  -2.4597  -2.4151
     3.3825   3.6406   4.3040   4.7117   4.7970

          k = 0.4444 0.3333 0.0000 (  6341 PWs)   bands (ev):

   -12.5201 -12.4962  -2.7537  -2.6372  -2.2448  -2.1030  -1.6732  -1.3923
     0.4243   1.1794   4.7122   4.9232   5.4440

          k = 0.0000-0.4444 0.0000 (  6326 PWs)   bands (ev):

   -12.2172 -12.1630  -4.2092  -4.1527  -2.6851  -2.6454  -2.4597  -2.4151
     3.3825   3.6406   4.3040   4.7117   4.7970

          k = 0.0000-0.1111 0.0000 (  6347 PWs)   bands (ev):

   -13.1332 -12.8392  -2.5291  -2.3506  -1.3907  -1.0790  -0.8909  -0.6778
     0.5287   1.8204   2.1228   2.7830   2.9110

          k = 0.1111-0.1111 0.0000 (  6361 PWs)   bands (ev):

   -13.0410 -12.7654  -2.6138  -2.3530  -1.5701  -1.4588  -1.4471  -1.0716
     1.1080   2.2329   2.3768   2.5208   3.2540

          k = 0.1111 0.2222 0.0000 (  6350 PWs)   bands (ev):

   -12.7973 -12.5740  -3.0219  -2.6897  -2.1933  -2.1640  -1.7256  -1.5622
     1.5849   2.5877   2.7888   3.4692   3.7439

          k = 0.2222-0.1111 0.0000 (  6350 PWs)   bands (ev):

   -12.7973 -12.5740  -3.0219  -2.6897  -2.1933  -2.1640  -1.7256  -1.5622
     1.5849   2.5877   2.7888   3.4692   3.7439

          k = 0.2222 0.2222 0.0000 (  6335 PWs)   bands (ev):

   -12.6613 -12.4831  -3.2146  -3.0182  -2.3468  -2.0031  -1.9173  -1.6527
     1.1163   2.9690   3.6926   4.3446   4.3949

          k =-0.2222 0.1111 0.0000 (  6350 PWs)   bands (ev):

   -12.7973 -12.5740  -3.0219  -2.6897  -2.1933  -2.1640  -1.7256  -1.5622
     1.5849   2.5877   2.7888   3.4692   3.7439

          k =-0.2222 0.4444 0.0000 (  6313 PWs)   bands (ev):

   -12.3874 -12.3488  -3.4175  -3.4053  -2.5878  -2.4611  -1.8760  -1.8222
     1.3680   2.2359   4.3012   4.8511   5.5379

          k = 0.1111-0.2222 0.0000 (  6350 PWs)   bands (ev):

   -12.7973 -12.5740  -3.0219  -2.6897  -2.1933  -2.1640  -1.7256  -1.5622
     1.5849   2.5877   2.7888   3.4692   3.7439

          k = 0.1111 0.1111 0.0000 (  6361 PWs)   bands (ev):

   -13.0410 -12.7654  -2.6138  -2.3530  -1.5701  -1.4588  -1.4471  -1.0716
     1.1080   2.2329   2.3768   2.5208   3.2540

          k = 0.3333-0.1111 0.0000 (  6326 PWs)   bands (ev):

   -12.4953 -12.3509  -3.6287  -3.4767  -2.4985  -2.3614  -2.1114  -2.0075
     1.9002   3.1439   3.9276   4.3672   4.5601

          k = 0.3333 0.2222 0.0000 (  6318 PWs)   bands (ev):

   -12.5038 -12.3905  -3.3810  -3.3257  -2.4467  -2.1476  -1.8416  -1.8306
     0.9519   3.2568   3.7001   4.7977   4.8989

          k =-0.3333 0.1111 0.0000 (  6326 PWs)   bands (ev):

   -12.4953 -12.3509  -3.6287  -3.4767  -2.4985  -2.3614  -2.1114  -2.0075
     1.9002   3.1439   3.9276   4.3672   4.5601

          k =-0.3333 0.4444 0.0000 (  6341 PWs)   bands (ev):

   -12.5201 -12.4962  -2.7537  -2.6372  -2.2448  -2.1030  -1.6732  -1.3923
     0.4243   1.1794   4.7122   4.9232   5.4440

          k = 0.1111-0.3333 0.0000 (  6326 PWs)   bands (ev):

   -12.4953 -12.3509  -3.6287  -3.4767  -2.4985  -2.3614  -2.1114  -2.0075
     1.9002   3.1439   3.9276   4.3672   4.5601

          k = 0.1111 0.0000 0.0000 (  6347 PWs)   bands (ev):

   -13.1332 -12.8392  -2.5291  -2.3506  -1.3907  -1.0790  -0.8909  -0.6778
     0.5287   1.8204   2.1228   2.7830   2.9110

          k = 0.4444-0.1111 0.0000 (  6319 PWs)   bands (ev):

   -12.2661 -12.2163  -3.9948  -3.9506  -2.7158  -2.6522  -2.2324  -2.2036
     2.5016   3.3093   4.1135   4.6320   5.2763

          k = 0.4444 0.2222 0.0000 (  6313 PWs)   bands (ev):

   -12.3874 -12.3488  -3.4175  -3.4053  -2.5878  -2.4611  -1.8760  -1.8222
     1.3680   2.2359   4.3012   4.8511   5.5379

          k =-0.4444 0.1111 0.0000 (  6319 PWs)   bands (ev):

   -12.2661 -12.2163  -3.9948  -3.9506  -2.7158  -2.6522  -2.2324  -2.2036
     2.5016   3.3093   4.1135   4.6320   5.2763

          k =-0.4444 0.4444 0.0000 (  6356 PWs)   bands (ev):

   -12.6012 -12.5931  -2.1850  -2.0670  -1.9088  -1.8820  -1.4737  -1.1251
    -0.1180   0.2814   5.0370   5.1995   5.3721

          k = 0.1111-0.4444 0.0000 (  6319 PWs)   bands (ev):

   -12.2661 -12.2163  -3.9948  -3.9506  -2.7158  -2.6522  -2.2324  -2.2036
     2.5016   3.3093   4.1135   4.6320   5.2763

          k = 0.1111-0.1111 0.0000 (  6361 PWs)   bands (ev):

   -13.0410 -12.7654  -2.6138  -2.3530  -1.5701  -1.4588  -1.4471  -1.0716
     1.1080   2.2329   2.3768   2.5208   3.2540

          k = 0.2222-0.2222 0.0000 (  6335 PWs)   bands (ev):

   -12.6613 -12.4831  -3.2146  -3.0182  -2.3468  -2.0031  -1.9173  -1.6527
     1.1163   2.9690   3.6926   4.3446   4.3949

          k = 0.2222 0.1111 0.0000 (  6350 PWs)   bands (ev):

   -12.7973 -12.5740  -3.0219  -2.6897  -2.1933  -2.1640  -1.7256  -1.5622
     1.5849   2.5877   2.7888   3.4692   3.7439

          k = 0.3333-0.2222 0.0000 (  6318 PWs)   bands (ev):

   -12.5038 -12.3905  -3.3810  -3.3257  -2.4467  -2.1476  -1.8416  -1.8306
     0.9519   3.2568   3.7001   4.7977   4.8989

          k = 0.3333 0.1111 0.0000 (  6326 PWs)   bands (ev):

   -12.4953 -12.3509  -3.6287  -3.4767  -2.4985  -2.3614  -2.1114  -2.0075
     1.9002   3.1439   3.9276   4.3672   4.5601

          k =-0.3333 0.2222 0.0000 (  6318 PWs)   bands (ev):

   -12.5038 -12.3905  -3.3810  -3.3257  -2.4467  -2.1476  -1.8416  -1.8306
     0.9519   3.2568   3.7001   4.7977   4.8989

          k =-0.3333 0.5556 0.0000 (  6341 PWs)   bands (ev):

   -12.5201 -12.4962  -2.7537  -2.6372  -2.2448  -2.1030  -1.6732  -1.3923
     0.4243   1.1794   4.7122   4.9232   5.4440

          k = 0.2222-0.3333 0.0000 (  6318 PWs)   bands (ev):

   -12.5038 -12.3905  -3.3810  -3.3257  -2.4467  -2.1476  -1.8416  -1.8306
     0.9519   3.2568   3.7001   4.7977   4.8989

          k = 0.2222 0.0000 0.0000 (  6363 PWs)   bands (ev):

   -12.8510 -12.6115  -2.9741  -2.6029  -2.2782  -1.8744  -1.6963  -1.5145
     1.5867   2.4528   2.8946   3.0518   3.1894

          k = 0.4444-0.2222 0.0000 (  6313 PWs)   bands (ev):

   -12.3874 -12.3488  -3.4175  -3.4053  -2.5878  -2.4611  -1.8760  -1.8222
     1.3680   2.2359   4.3012   4.8511   5.5379

          k = 0.4444 0.1111 0.0000 (  6319 PWs)   bands (ev):

   -12.2661 -12.2163  -3.9948  -3.9506  -2.7158  -2.6522  -2.2324  -2.2036
     2.5016   3.3093   4.1135   4.6320   5.2763

          k =-0.4444 0.2222 0.0000 (  6313 PWs)   bands (ev):

   -12.3874 -12.3488  -3.4175  -3.4053  -2.5878  -2.4611  -1.8760  -1.8222
     1.3680   2.2359   4.3012   4.8511   5.5379

          k =-0.4444 0.5556 0.0000 (  6356 PWs)   bands (ev):

   -12.6012 -12.5931  -2.1850  -2.0670  -1.9088  -1.8820  -1.4737  -1.1251
    -0.1180   0.2814   5.0370   5.1995   5.3721

          k = 0.2222-0.4444 0.0000 (  6313 PWs)   bands (ev):

   -12.3874 -12.3488  -3.4175  -3.4053  -2.5878  -2.4611  -1.8760  -1.8222
     1.3680   2.2359   4.3012   4.8511   5.5379

          k = 0.2222-0.1111 0.0000 (  6350 PWs)   bands (ev):

   -12.7973 -12.5740  -3.0219  -2.6897  -2.1933  -2.1640  -1.7256  -1.5622
     1.5849   2.5877   2.7888   3.4692   3.7439

          k = 0.3333-0.3333 0.0000 (  6296 PWs)   bands (ev):

   -12.5172 -12.4463  -3.0808  -3.0181  -2.1942  -1.9740  -1.8769  -1.4768
     0.3305   2.2163   4.1745   5.0519   5.4463

          k = 0.3333 0.0000 0.0000 (  6326 PWs)   bands (ev):

   -12.4935 -12.3374  -3.7189  -3.5356  -2.4090  -2.3522  -2.2456  -2.2348
     2.5850   3.0172   3.6757   3.7472   4.6167

          k = 0.4444-0.3333 0.0000 (  6341 PWs)   bands (ev):

   -12.5201 -12.4962  -2.7537  -2.6372  -2.2448  -2.1030  -1.6732  -1.3923
     0.4243   1.1794   4.7122   4.9232   5.4440

          k = 0.4444 0.0000 0.0000 (  6326 PWs)   bands (ev):

   -12.2172 -12.1630  -4.2092  -4.1527  -2.6851  -2.6454  -2.4597  -2.4151
     3.3825   3.6406   4.3040   4.7117   4.7970

          k =-0.4444 0.3333 0.0000 (  6341 PWs)   bands (ev):

   -12.5201 -12.4962  -2.7537  -2.6372  -2.2448  -2.1030  -1.6732  -1.3923
     0.4243   1.1794   4.7122   4.9232   5.4440

          k =-0.4444 0.6667 0.0000 (  6341 PWs)   bands (ev):

   -12.5201 -12.4962  -2.7537  -2.6372  -2.2448  -2.1030  -1.6732  -1.3923
     0.4243   1.1794   4.7122   4.9232   5.4440

          k = 0.3333-0.4444 0.0000 (  6341 PWs)   bands (ev):

   -12.5201 -12.4962  -2.7537  -2.6372  -2.2448  -2.1030  -1.6732  -1.3923
     0.4243   1.1794   4.7122   4.9232   5.4440

          k = 0.3333-0.1111 0.0000 (  6326 PWs)   bands (ev):

   -12.4953 -12.3509  -3.6287  -3.4767  -2.4985  -2.3614  -2.1114  -2.0075
     1.9002   3.1439   3.9276   4.3672   4.5601

          k = 0.4444-0.4444 0.0000 (  6356 PWs)   bands (ev):

   -12.6012 -12.5931  -2.1850  -2.0670  -1.9088  -1.8820  -1.4737  -1.1251
    -0.1180   0.2814   5.0370   5.1995   5.3721

          k = 0.4444-0.1111 0.0000 (  6319 PWs)   bands (ev):

   -12.2661 -12.2163  -3.9948  -3.9506  -2.7158  -2.6522  -2.2324  -2.2036
     2.5016   3.3093   4.1135   4.6320   5.2763

     the Fermi energy is     1.9807 ev

     Writing output data file ZrN.save/

     --                                                                         

     bravais-lattice index     =            6
     lattice parameter (alat)  =       5.9540  a.u.
     unit-cell volume          =    1060.8038 (a.u.)^3
     number of atoms/cell      =            4
     number of atomic types    =            2
     kinetic-energy cut-off    =      50.0000  Ry
     charge density cut-off    =     200.0000  Ry
     convergence threshold     =      1.0E-14
     beta                      =       0.7000
     number of iterations used =            4
     Exchange-correlation      = PBE ( 1  4  3  4 0 0)


     celldm(1)=    5.95404  celldm(2)=    0.00000  celldm(3)=    5.02573
     celldm(4)=    0.00000  celldm(5)=    0.00000  celldm(6)=    0.00000

     crystal axes: (cart. coord. in units of alat)
               a(1) = (  1.0000  0.0000  0.0000 )  
               a(2) = (  0.0000  1.0000  0.0000 )  
               a(3) = (  0.0000  0.0000  5.0257 )  

     reciprocal axes: (cart. coord. in units 2 pi/alat)
               b(1) = (  1.0000  0.0000  0.0000 )  
               b(2) = (  0.0000  1.0000  0.0000 )  
               b(3) = (  0.0000  0.0000  0.1990 )  


     Atoms inside the unit cell: 

     Cartesian axes

     site n.  atom      mass           positions (alat units)
        1     Zr  91.2240   tau(    1) = (    1.00000    1.00000    2.17199  )
        2     Zr  91.2240   tau(    2) = (    0.50000    0.50000    2.85371  )
        3     N   14.0067   tau(    3) = (    1.00000    1.00000    2.94136  )
        4     N   14.0067   tau(    4) = (    0.50000    0.50000    2.08441  )

     Computing dynamical matrix for 
                    q = (   0.0000000   0.3333333   0.0000000 )
 
      2 Sym.Ops. (no q -> -q+G )


     G cutoff =  179.5949  (   6341 G-vectors)     FFT grid: ( 27, 27,135)

     number of k points=    90  gaussian smearing, width (Ry)=  0.0100

     PseudoPot. # 1 for Zr read from file:
     /public1/home/sc40125/pseudo/pbe/Zr.pbe-mt_fhi.UPF
     MD5 check sum: c4386e95b382de2b39753e4addfc8b7e
     Pseudo is Norm-conserving, Zval =  4.0
     Generated using FHI98PP, converted with fhi2upf.x v.5.0.2
     Using radial grid of  539 points,  3 beta functions with: 
                l(1) =   0
                l(2) =   2
                l(3) =   3

     PseudoPot. # 2 for N  read from file:
     /public1/home/sc40125/pseudo/pbe/N.pbe-mt_fhi.UPF
     MD5 check sum: e15e723d2596c7aaeca87f2bd8795892
     Pseudo is Norm-conserving, Zval =  5.0
     Generated using FHI98PP, converted with fhi2upf.x v.5.0.2
     Using radial grid of  467 points,  3 beta functions with: 
                l(1) =   0
                l(2) =   1
                l(3) =   3

     Mode symmetry, C_s (m)     point group:


     Atomic displacements:
     There are  12 irreducible representations

     Representation     1      1 modes -A'  To be done

     Representation     2      1 modes -A'  To be done

     Representation     3      1 modes -A'  To be done

     Representation     4      1 modes -A'  To be done

     Representation     5      1 modes -A'  To be done

     Representation     6      1 modes -A'  To be done

     Representation     7      1 modes -A'  To be done

     Representation     8      1 modes -A'  To be done

     Representation     9      1 modes -A''  To be done

     Representation    10      1 modes -A''  To be done

     Representation    11      1 modes -A''  To be done

     Representation    12      1 modes -A''  To be done



     Alpha used in Ewald sum =   2.0000
     PHONON       :     26.32s CPU     29.66s WALL



     Representation #  1 mode #   1

     Self-consistent Calculation

      iter #   1 total cpu time :    30.0 secs   av.it.:   9.0
      thresh= 1.000E-02 alpha_mix =  0.700 |ddv_scf|^2 =  4.836E-05

      iter #   2 total cpu time :    30.6 secs   av.it.:  15.6
      thresh= 6.954E-04 alpha_mix =  0.700 |ddv_scf|^2 =  1.311E-03

      iter #   3 total cpu time :    31.1 secs   av.it.:  12.0
      thresh= 3.621E-03 alpha_mix =  0.700 |ddv_scf|^2 =  7.880E-06

      iter #   4 total cpu time :    31.6 secs   av.it.:  14.0
      thresh= 2.807E-04 alpha_mix =  0.700 |ddv_scf|^2 =  2.475E-07

      iter #   5 total cpu time :    32.1 secs   av.it.:  14.5
      thresh= 4.975E-05 alpha_mix =  0.700 |ddv_scf|^2 =  6.698E-08

      iter #   6 total cpu time :    32.6 secs   av.it.:  14.9
      thresh= 2.588E-05 alpha_mix =  0.700 |ddv_scf|^2 =  1.477E-09

      iter #   7 total cpu time :    33.1 secs   av.it.:  14.7
      thresh= 3.844E-06 alpha_mix =  0.700 |ddv_scf|^2 =  6.892E-11

      iter #   8 total cpu time :    33.7 secs   av.it.:  15.7
      thresh= 8.302E-07 alpha_mix =  0.700 |ddv_scf|^2 =  1.393E-10

      iter #   9 total cpu time :    34.2 secs   av.it.:  14.6
      thresh= 1.180E-06 alpha_mix =  0.700 |ddv_scf|^2 =  3.031E-11

      iter #  10 total cpu time :    34.7 secs   av.it.:  13.9
      thresh= 5.505E-07 alpha_mix =  0.700 |ddv_scf|^2 =  1.422E-11

      iter #  11 total cpu time :    35.2 secs   av.it.:  13.8
      thresh= 3.771E-07 alpha_mix =  0.700 |ddv_scf|^2 =  6.518E-12

      iter #  12 total cpu time :    35.7 secs   av.it.:  13.5
      thresh= 2.553E-07 alpha_mix =  0.700 |ddv_scf|^2 =  2.760E-12

      iter #  13 total cpu time :    36.2 secs   av.it.:  14.3
      thresh= 1.661E-07 alpha_mix =  0.700 |ddv_scf|^2 =  8.590E-14

      iter #  14 total cpu time :    36.7 secs   av.it.:  15.9
      thresh= 2.931E-08 alpha_mix =  0.700 |ddv_scf|^2 =  1.863E-13

      iter #  15 total cpu time :    37.3 secs   av.it.:  14.6
      thresh= 4.317E-08 alpha_mix =  0.700 |ddv_scf|^2 =  8.318E-14

      iter #  16 total cpu time :    37.7 secs   av.it.:  13.0
      thresh= 2.884E-08 alpha_mix =  0.700 |ddv_scf|^2 =  7.050E-14

      iter #  17 total cpu time :    38.2 secs   av.it.:  13.6
      thresh= 2.655E-08 alpha_mix =  0.700 |ddv_scf|^2 =  3.147E-14

      iter #  18 total cpu time :    38.7 secs   av.it.:  13.0
      thresh= 1.774E-08 alpha_mix =  0.700 |ddv_scf|^2 =  2.326E-14

      iter #  19 total cpu time :    39.2 secs   av.it.:  13.8
      thresh= 1.525E-08 alpha_mix =  0.700 |ddv_scf|^2 =  1.231E-15

     End of self-consistent calculation

     Convergence has been achieved 


     Representation #  2 mode #   2

     Self-consistent Calculation

      iter #   1 total cpu time :    39.6 secs   av.it.:   9.0
      thresh= 1.000E-02 alpha_mix =  0.700 |ddv_scf|^2 =  2.492E-05

      iter #   2 total cpu time :    40.2 secs   av.it.:  15.7
      thresh= 4.992E-04 alpha_mix =  0.700 |ddv_scf|^2 =  6.134E-04

      iter #   3 total cpu time :    40.7 secs   av.it.:  12.0
      thresh= 2.477E-03 alpha_mix =  0.700 |ddv_scf|^2 =  7.095E-06

      iter #   4 total cpu time :    41.2 secs   av.it.:  14.0
      thresh= 2.664E-04 alpha_mix =  0.700 |ddv_scf|^2 =  3.764E-07

      iter #   5 total cpu time :    41.7 secs   av.it.:  14.4
      thresh= 6.135E-05 alpha_mix =  0.700 |ddv_scf|^2 =  3.614E-08

      iter #   6 total cpu time :    42.2 secs   av.it.:  15.1
      thresh= 1.901E-05 alpha_mix =  0.700 |ddv_scf|^2 =  1.989E-09

      iter #   7 total cpu time :    42.7 secs   av.it.:  14.8
      thresh= 4.460E-06 alpha_mix =  0.700 |ddv_scf|^2 =  8.344E-11

      iter #   8 total cpu time :    43.3 secs   av.it.:  15.3
      thresh= 9.135E-07 alpha_mix =  0.700 |ddv_scf|^2 =  6.202E-10

      iter #   9 total cpu time :    43.8 secs   av.it.:  12.6
      thresh= 2.490E-06 alpha_mix =  0.700 |ddv_scf|^2 =  1.391E-10

      iter #  10 total cpu time :    44.2 secs   av.it.:  13.6
      thresh= 1.179E-06 alpha_mix =  0.700 |ddv_scf|^2 =  4.587E-11

      iter #  11 total cpu time :    44.8 secs   av.it.:  13.7
      thresh= 6.773E-07 alpha_mix =  0.700 |ddv_scf|^2 =  1.038E-12

      iter #  12 total cpu time :    45.3 secs   av.it.:  15.4
      thresh= 1.019E-07 alpha_mix =  0.700 |ddv_scf|^2 =  7.974E-13

      iter #  13 total cpu time :    45.9 secs   av.it.:  15.2
      thresh= 8.930E-08 alpha_mix =  0.700 |ddv_scf|^2 =  4.582E-13

      iter #  14 total cpu time :    46.4 secs   av.it.:  14.2
      thresh= 6.769E-08 alpha_mix =  0.700 |ddv_scf|^2 =  5.416E-13

      iter #  15 total cpu time :    46.9 secs   av.it.:  13.0
      thresh= 7.360E-08 alpha_mix =  0.700 |ddv_scf|^2 =  6.454E-14

      iter #  16 total cpu time :    47.4 secs   av.it.:  14.5
      thresh= 2.540E-08 alpha_mix =  0.700 |ddv_scf|^2 =  1.133E-13

      iter #  17 total cpu time :    47.9 secs   av.it.:  13.7
      thresh= 3.367E-08 alpha_mix =  0.700 |ddv_scf|^2 =  3.345E-14

      iter #  18 total cpu time :    48.4 secs   av.it.:  14.6
      thresh= 1.829E-08 alpha_mix =  0.700 |ddv_scf|^2 =  1.542E-15

     End of self-consistent calculation

     Convergence has been achieved 


     Representation #  3 mode #   3

     Self-consistent Calculation

      iter #   1 total cpu time :    48.8 secs   av.it.:   7.6
      thresh= 1.000E-02 alpha_mix =  0.700 |ddv_scf|^2 =  2.708E-06

      iter #   2 total cpu time :    49.4 secs   av.it.:  15.7
      thresh= 1.646E-04 alpha_mix =  0.700 |ddv_scf|^2 =  6.917E-05

      iter #   3 total cpu time :    49.9 secs   av.it.:  12.1
      thresh= 8.317E-04 alpha_mix =  0.700 |ddv_scf|^2 =  6.599E-07

      iter #   4 total cpu time :    50.4 secs   av.it.:  14.0
      thresh= 8.124E-05 alpha_mix =  0.700 |ddv_scf|^2 =  7.270E-08

      iter #   5 total cpu time :    50.9 secs   av.it.:  14.0
      thresh= 2.696E-05 alpha_mix =  0.700 |ddv_scf|^2 =  7.597E-10

      iter #   6 total cpu time :    51.4 secs   av.it.:  15.9
      thresh= 2.756E-06 alpha_mix =  0.700 |ddv_scf|^2 =  7.426E-10

      iter #   7 total cpu time :    52.0 secs   av.it.:  15.1
      thresh= 2.725E-06 alpha_mix =  0.700 |ddv_scf|^2 =  1.658E-11

      iter #   8 total cpu time :    52.5 secs   av.it.:  15.1
      thresh= 4.071E-07 alpha_mix =  0.700 |ddv_scf|^2 =  7.813E-11

      iter #   9 total cpu time :    53.0 secs   av.it.:  13.1
      thresh= 8.839E-07 alpha_mix =  0.700 |ddv_scf|^2 =  1.466E-11

      iter #  10 total cpu time :    53.5 secs   av.it.:  14.1
      thresh= 3.829E-07 alpha_mix =  0.700 |ddv_scf|^2 =  1.199E-11

      iter #  11 total cpu time :    54.0 secs   av.it.:  14.0
      thresh= 3.463E-07 alpha_mix =  0.700 |ddv_scf|^2 =  3.827E-12

      iter #  12 total cpu time :    54.5 secs   av.it.:  13.7
      thresh= 1.956E-07 alpha_mix =  0.700 |ddv_scf|^2 =  3.329E-13

      iter #  13 total cpu time :    55.1 secs   av.it.:  14.6
      thresh= 5.770E-08 alpha_mix =  0.700 |ddv_scf|^2 =  6.127E-14

      iter #  14 total cpu time :    55.6 secs   av.it.:  15.0
      thresh= 2.475E-08 alpha_mix =  0.700 |ddv_scf|^2 =  2.020E-14

      iter #  15 total cpu time :    56.2 secs   av.it.:  14.9
      thresh= 1.421E-08 alpha_mix =  0.700 |ddv_scf|^2 =  1.738E-14

      iter #  16 total cpu time :    56.7 secs   av.it.:  13.5
      thresh= 1.318E-08 alpha_mix =  0.700 |ddv_scf|^2 =  1.639E-14

      iter #  17 total cpu time :    57.2 secs   av.it.:  13.3
      thresh= 1.280E-08 alpha_mix =  0.700 |ddv_scf|^2 =  2.238E-15

     End of self-consistent calculation

     Convergence has been achieved 


     Representation #  4 mode #   4

     Self-consistent Calculation

      iter #   1 total cpu time :    57.5 secs   av.it.:   7.5
      thresh= 1.000E-02 alpha_mix =  0.700 |ddv_scf|^2 =  3.932E-06

      iter #   2 total cpu time :    58.1 secs   av.it.:  15.5
      thresh= 1.983E-04 alpha_mix =  0.700 |ddv_scf|^2 =  1.097E-04

      iter #   3 total cpu time :    58.6 secs   av.it.:  11.9
      thresh= 1.047E-03 alpha_mix =  0.700 |ddv_scf|^2 =  4.799E-07

      iter #   4 total cpu time :    59.1 secs   av.it.:  14.1
      thresh= 6.928E-05 alpha_mix =  0.700 |ddv_scf|^2 =  7.425E-08

      iter #   5 total cpu time :    59.6 secs   av.it.:  14.0
      thresh= 2.725E-05 alpha_mix =  0.700 |ddv_scf|^2 =  5.801E-10

      iter #   6 total cpu time :    60.1 secs   av.it.:  15.1
      thresh= 2.409E-06 alpha_mix =  0.700 |ddv_scf|^2 =  1.799E-10

      iter #   7 total cpu time :    60.7 secs   av.it.:  15.7
      thresh= 1.341E-06 alpha_mix =  0.700 |ddv_scf|^2 =  5.352E-11

      iter #   8 total cpu time :    61.2 secs   av.it.:  15.2
      thresh= 7.316E-07 alpha_mix =  0.700 |ddv_scf|^2 =  4.268E-11

      iter #   9 total cpu time :    61.7 secs   av.it.:  13.1
      thresh= 6.533E-07 alpha_mix =  0.700 |ddv_scf|^2 =  6.422E-12

      iter #  10 total cpu time :    62.2 secs   av.it.:  14.4
      thresh= 2.534E-07 alpha_mix =  0.700 |ddv_scf|^2 =  1.194E-11

      iter #  11 total cpu time :    62.7 secs   av.it.:  13.0
      thresh= 3.456E-07 alpha_mix =  0.700 |ddv_scf|^2 =  3.779E-13

      iter #  12 total cpu time :    63.2 secs   av.it.:  14.6
      thresh= 6.148E-08 alpha_mix =  0.700 |ddv_scf|^2 =  2.780E-13

      iter #  13 total cpu time :    63.7 secs   av.it.:  14.0
      thresh= 5.272E-08 alpha_mix =  0.700 |ddv_scf|^2 =  4.672E-14

      iter #  14 total cpu time :    64.2 secs   av.it.:  13.4
      thresh= 2.161E-08 alpha_mix =  0.700 |ddv_scf|^2 =  5.469E-15

     End of self-consistent calculation

     Convergence has been achieved 


     Representation #  5 mode #   5

     Self-consistent Calculation

      iter #   1 total cpu time :    64.6 secs   av.it.:   8.6
      thresh= 1.000E-02 alpha_mix =  0.700 |ddv_scf|^2 =  6.486E-06

      iter #   2 total cpu time :    65.2 secs   av.it.:  15.9
      thresh= 2.547E-04 alpha_mix =  0.700 |ddv_scf|^2 =  1.329E-04

      iter #   3 total cpu time :    65.6 secs   av.it.:  12.2
      thresh= 1.153E-03 alpha_mix =  0.700 |ddv_scf|^2 =  2.662E-06

      iter #   4 total cpu time :    66.2 secs   av.it.:  14.4
      thresh= 1.632E-04 alpha_mix =  0.700 |ddv_scf|^2 =  7.241E-07

      iter #   5 total cpu time :    66.7 secs   av.it.:  13.8
      thresh= 8.509E-05 alpha_mix =  0.700 |ddv_scf|^2 =  9.918E-09

      iter #   6 total cpu time :    67.2 secs   av.it.:  15.5
      thresh= 9.959E-06 alpha_mix =  0.700 |ddv_scf|^2 =  2.238E-09

      iter #   7 total cpu time :    67.7 secs   av.it.:  14.9
      thresh= 4.731E-06 alpha_mix =  0.700 |ddv_scf|^2 =  7.028E-11

      iter #   8 total cpu time :    68.3 secs   av.it.:  15.2
      thresh= 8.383E-07 alpha_mix =  0.700 |ddv_scf|^2 =  2.432E-11

      iter #   9 total cpu time :    68.8 secs   av.it.:  15.2
      thresh= 4.932E-07 alpha_mix =  0.700 |ddv_scf|^2 =  3.386E-11

      iter #  10 total cpu time :    69.3 secs   av.it.:  13.6
      thresh= 5.819E-07 alpha_mix =  0.700 |ddv_scf|^2 =  1.827E-11

      iter #  11 total cpu time :    69.8 secs   av.it.:  14.5
      thresh= 4.274E-07 alpha_mix =  0.700 |ddv_scf|^2 =  2.824E-12

      iter #  12 total cpu time :    70.3 secs   av.it.:  14.1
      thresh= 1.681E-07 alpha_mix =  0.700 |ddv_scf|^2 =  1.755E-12

      iter #  13 total cpu time :    71.0 secs   av.it.:  13.6
      thresh= 1.325E-07 alpha_mix =  0.700 |ddv_scf|^2 =  4.236E-13

      iter #  14 total cpu time :    71.6 secs   av.it.:  14.6
      thresh= 6.508E-08 alpha_mix =  0.700 |ddv_scf|^2 =  5.645E-14

      iter #  15 total cpu time :    72.1 secs   av.it.:  15.2
      thresh= 2.376E-08 alpha_mix =  0.700 |ddv_scf|^2 =  1.074E-13

      iter #  16 total cpu time :    72.6 secs   av.it.:  13.1
      thresh= 3.277E-08 alpha_mix =  0.700 |ddv_scf|^2 =  4.529E-14

      iter #  17 total cpu time :    73.1 secs   av.it.:  15.0
      thresh= 2.128E-08 alpha_mix =  0.700 |ddv_scf|^2 =  3.761E-14

      iter #  18 total cpu time :    73.6 secs   av.it.:  14.1
      thresh= 1.939E-08 alpha_mix =  0.700 |ddv_scf|^2 =  1.291E-14

      iter #  19 total cpu time :    74.1 secs   av.it.:  13.4
      thresh= 1.136E-08 alpha_mix =  0.700 |ddv_scf|^2 =  6.654E-15

     End of self-consistent calculation

     Convergence has been achieved 


     Representation #  6 mode #   6

     Self-consistent Calculation

      iter #   1 total cpu time :    74.5 secs   av.it.:   9.0
      thresh= 1.000E-02 alpha_mix =  0.700 |ddv_scf|^2 =  2.995E-05

      iter #   2 total cpu time :    75.1 secs   av.it.:  15.6
      thresh= 5.473E-04 alpha_mix =  0.700 |ddv_scf|^2 =  8.313E-04

      iter #   3 total cpu time :    75.6 secs   av.it.:  11.9
      thresh= 2.883E-03 alpha_mix =  0.700 |ddv_scf|^2 =  3.616E-06

      iter #   4 total cpu time :    76.1 secs   av.it.:  14.4
      thresh= 1.902E-04 alpha_mix =  0.700 |ddv_scf|^2 =  4.221E-07

      iter #   5 total cpu time :    76.6 secs   av.it.:  14.2
      thresh= 6.497E-05 alpha_mix =  0.700 |ddv_scf|^2 =  3.586E-08

      iter #   6 total cpu time :    77.2 secs   av.it.:  15.2
      thresh= 1.894E-05 alpha_mix =  0.700 |ddv_scf|^2 =  2.501E-09

      iter #   7 total cpu time :    77.7 secs   av.it.:  14.8
      thresh= 5.001E-06 alpha_mix =  0.700 |ddv_scf|^2 =  7.455E-11

      iter #   8 total cpu time :    78.3 secs   av.it.:  16.1
      thresh= 8.634E-07 alpha_mix =  0.700 |ddv_scf|^2 =  1.096E-09

      iter #   9 total cpu time :    78.7 secs   av.it.:  12.6
      thresh= 3.311E-06 alpha_mix =  0.700 |ddv_scf|^2 =  4.872E-11

      iter #  10 total cpu time :    79.2 secs   av.it.:  14.6
      thresh= 6.980E-07 alpha_mix =  0.700 |ddv_scf|^2 =  1.855E-11

      iter #  11 total cpu time :    79.8 secs   av.it.:  14.0
      thresh= 4.306E-07 alpha_mix =  0.700 |ddv_scf|^2 =  3.581E-12

      iter #  12 total cpu time :    80.3 secs   av.it.:  14.8
      thresh= 1.892E-07 alpha_mix =  0.700 |ddv_scf|^2 =  4.488E-12

      iter #  13 total cpu time :    80.8 secs   av.it.:  13.5
      thresh= 2.119E-07 alpha_mix =  0.700 |ddv_scf|^2 =  1.701E-13

      iter #  14 total cpu time :    81.3 secs   av.it.:  16.2
      thresh= 4.125E-08 alpha_mix =  0.700 |ddv_scf|^2 =  7.026E-13

      iter #  15 total cpu time :    81.8 secs   av.it.:  13.8
      thresh= 8.382E-08 alpha_mix =  0.700 |ddv_scf|^2 =  1.614E-13

      iter #  16 total cpu time :    82.3 secs   av.it.:  14.3
      thresh= 4.017E-08 alpha_mix =  0.700 |ddv_scf|^2 =  5.086E-14

      iter #  17 total cpu time :    82.9 secs   av.it.:  14.7
      thresh= 2.255E-08 alpha_mix =  0.700 |ddv_scf|^2 =  2.678E-14

      iter #  18 total cpu time :    83.4 secs   av.it.:  14.4
      thresh= 1.636E-08 alpha_mix =  0.700 |ddv_scf|^2 =  3.124E-14

      iter #  19 total cpu time :    83.9 secs   av.it.:  13.1
      thresh= 1.767E-08 alpha_mix =  0.700 |ddv_scf|^2 =  5.399E-15

     End of self-consistent calculation

     Convergence has been achieved 


     Representation #  7 mode #   7

     Self-consistent Calculation

      iter #   1 total cpu time :    84.3 secs   av.it.:   8.2
      thresh= 1.000E-02 alpha_mix =  0.700 |ddv_scf|^2 =  1.666E-05

      iter #   2 total cpu time :    84.8 secs   av.it.:  15.3
      thresh= 4.081E-04 alpha_mix =  0.700 |ddv_scf|^2 =  4.714E-04

      iter #   3 total cpu time :    85.3 secs   av.it.:  11.8
      thresh= 2.171E-03 alpha_mix =  0.700 |ddv_scf|^2 =  9.676E-07

      iter #   4 total cpu time :    85.8 secs   av.it.:  14.5
      thresh= 9.837E-05 alpha_mix =  0.700 |ddv_scf|^2 =  1.180E-07

      iter #   5 total cpu time :    86.3 secs   av.it.:  13.8
      thresh= 3.435E-05 alpha_mix =  0.700 |ddv_scf|^2 =  1.674E-08

      iter #   6 total cpu time :    86.8 secs   av.it.:  14.8
      thresh= 1.294E-05 alpha_mix =  0.700 |ddv_scf|^2 =  9.181E-10

      iter #   7 total cpu time :    87.3 secs   av.it.:  14.8
      thresh= 3.030E-06 alpha_mix =  0.700 |ddv_scf|^2 =  4.674E-11

      iter #   8 total cpu time :    87.9 secs   av.it.:  15.7
      thresh= 6.836E-07 alpha_mix =  0.700 |ddv_scf|^2 =  3.059E-11

      iter #   9 total cpu time :    88.4 secs   av.it.:  15.2
      thresh= 5.531E-07 alpha_mix =  0.700 |ddv_scf|^2 =  2.475E-11

      iter #  10 total cpu time :    88.9 secs   av.it.:  13.5
      thresh= 4.975E-07 alpha_mix =  0.700 |ddv_scf|^2 =  2.536E-11

      iter #  11 total cpu time :    89.4 secs   av.it.:  13.2
      thresh= 5.036E-07 alpha_mix =  0.700 |ddv_scf|^2 =  2.611E-12

      iter #  12 total cpu time :    89.9 secs   av.it.:  15.1
      thresh= 1.616E-07 alpha_mix =  0.700 |ddv_scf|^2 =  7.651E-13

      iter #  13 total cpu time :    90.5 secs   av.it.:  15.0
      thresh= 8.747E-08 alpha_mix =  0.700 |ddv_scf|^2 =  2.171E-13

      iter #  14 total cpu time :    91.0 secs   av.it.:  14.3
      thresh= 4.659E-08 alpha_mix =  0.700 |ddv_scf|^2 =  6.015E-13

      iter #  15 total cpu time :    91.5 secs   av.it.:  13.1
      thresh= 7.756E-08 alpha_mix =  0.700 |ddv_scf|^2 =  2.876E-14

      iter #  16 total cpu time :    92.0 secs   av.it.:  15.7
      thresh= 1.696E-08 alpha_mix =  0.700 |ddv_scf|^2 =  2.842E-13

      iter #  17 total cpu time :    92.5 secs   av.it.:  12.7
      thresh= 5.331E-08 alpha_mix =  0.700 |ddv_scf|^2 =  1.087E-14

      iter #  18 total cpu time :    93.0 secs   av.it.:  15.4
      thresh= 1.042E-08 alpha_mix =  0.700 |ddv_scf|^2 =  7.908E-15

     End of self-consistent calculation

     Convergence has been achieved 


     Representation #  8 mode #   8

     Self-consistent Calculation

      iter #   1 total cpu time :    93.5 secs   av.it.:   8.3
      thresh= 1.000E-02 alpha_mix =  0.700 |ddv_scf|^2 =  1.788E-05

      iter #   2 total cpu time :    94.0 secs   av.it.:  15.3
      thresh= 4.228E-04 alpha_mix =  0.700 |ddv_scf|^2 =  5.118E-04

      iter #   3 total cpu time :    94.5 secs   av.it.:  11.8
      thresh= 2.262E-03 alpha_mix =  0.700 |ddv_scf|^2 =  7.991E-07

      iter #   4 total cpu time :    95.0 secs   av.it.:  14.5
      thresh= 8.939E-05 alpha_mix =  0.700 |ddv_scf|^2 =  1.200E-07

      iter #   5 total cpu time :    95.5 secs   av.it.:  13.9
      thresh= 3.464E-05 alpha_mix =  0.700 |ddv_scf|^2 =  1.745E-08

      iter #   6 total cpu time :    96.0 secs   av.it.:  14.7
      thresh= 1.321E-05 alpha_mix =  0.700 |ddv_scf|^2 =  8.493E-10

      iter #   7 total cpu time :    96.5 secs   av.it.:  14.9
      thresh= 2.914E-06 alpha_mix =  0.700 |ddv_scf|^2 =  4.366E-11

      iter #   8 total cpu time :    97.1 secs   av.it.:  15.6
      thresh= 6.608E-07 alpha_mix =  0.700 |ddv_scf|^2 =  3.740E-11

      iter #   9 total cpu time :    97.6 secs   av.it.:  14.8
      thresh= 6.116E-07 alpha_mix =  0.700 |ddv_scf|^2 =  4.373E-11

      iter #  10 total cpu time :    98.1 secs   av.it.:  12.9
      thresh= 6.613E-07 alpha_mix =  0.700 |ddv_scf|^2 =  2.479E-11

      iter #  11 total cpu time :    98.6 secs   av.it.:  13.4
      thresh= 4.979E-07 alpha_mix =  0.700 |ddv_scf|^2 =  4.956E-12

      iter #  12 total cpu time :    99.1 secs   av.it.:  15.0
      thresh= 2.226E-07 alpha_mix =  0.700 |ddv_scf|^2 =  1.116E-12

      iter #  13 total cpu time :    99.6 secs   av.it.:  15.1
      thresh= 1.056E-07 alpha_mix =  0.700 |ddv_scf|^2 =  2.780E-13

      iter #  14 total cpu time :   100.2 secs   av.it.:  14.4
      thresh= 5.272E-08 alpha_mix =  0.700 |ddv_scf|^2 =  2.778E-13

      iter #  15 total cpu time :   100.7 secs   av.it.:  13.9
      thresh= 5.271E-08 alpha_mix =  0.700 |ddv_scf|^2 =  4.141E-14

      iter #  16 total cpu time :   101.2 secs   av.it.:  15.2
      thresh= 2.035E-08 alpha_mix =  0.700 |ddv_scf|^2 =  5.003E-13

      iter #  17 total cpu time :   101.7 secs   av.it.:  12.2
      thresh= 7.073E-08 alpha_mix =  0.700 |ddv_scf|^2 =  7.624E-15

     End of self-consistent calculation

     Convergence has been achieved 


     Representation #  9 mode #   9

     Self-consistent Calculation

      iter #   1 total cpu time :   102.0 secs   av.it.:   6.9
      thresh= 1.000E-02 alpha_mix =  0.700 |ddv_scf|^2 =  1.476E-08

      iter #   2 total cpu time :   102.6 secs   av.it.:  14.8
      thresh= 1.215E-05 alpha_mix =  0.700 |ddv_scf|^2 =  1.070E-09

      iter #   3 total cpu time :   103.0 secs   av.it.:  14.1
      thresh= 3.271E-06 alpha_mix =  0.700 |ddv_scf|^2 =  5.656E-11

      iter #   4 total cpu time :   103.6 secs   av.it.:  14.6
      thresh= 7.520E-07 alpha_mix =  0.700 |ddv_scf|^2 =  2.303E-12

      iter #   5 total cpu time :   104.3 secs   av.it.:  15.0
      thresh= 1.518E-07 alpha_mix =  0.700 |ddv_scf|^2 =  2.331E-13

      iter #   6 total cpu time :   104.9 secs   av.it.:  15.2
      thresh= 4.828E-08 alpha_mix =  0.700 |ddv_scf|^2 =  1.171E-15

     End of self-consistent calculation

     Convergence has been achieved 


     Representation # 10 mode #  10

     Self-consistent Calculation

      iter #   1 total cpu time :   105.2 secs   av.it.:   7.9
      thresh= 1.000E-02 alpha_mix =  0.700 |ddv_scf|^2 =  4.005E-07

      iter #   2 total cpu time :   105.8 secs   av.it.:  15.7
      thresh= 6.329E-05 alpha_mix =  0.700 |ddv_scf|^2 =  8.403E-09

      iter #   3 total cpu time :   106.3 secs   av.it.:  15.4
      thresh= 9.167E-06 alpha_mix =  0.700 |ddv_scf|^2 =  8.114E-11

      iter #   4 total cpu time :   106.8 secs   av.it.:  14.5
      thresh= 9.008E-07 alpha_mix =  0.700 |ddv_scf|^2 =  2.402E-12

      iter #   5 total cpu time :   107.4 secs   av.it.:  15.2
      thresh= 1.550E-07 alpha_mix =  0.700 |ddv_scf|^2 =  1.309E-13

      iter #   6 total cpu time :   107.9 secs   av.it.:  15.4
      thresh= 3.617E-08 alpha_mix =  0.700 |ddv_scf|^2 =  8.553E-15

     End of self-consistent calculation

     Convergence has been achieved 


     Representation # 11 mode #  11

     Self-consistent Calculation

      iter #   1 total cpu time :   108.3 secs   av.it.:   8.0
      thresh= 1.000E-02 alpha_mix =  0.700 |ddv_scf|^2 =  4.011E-07

[...]
      thresh= 3.485E-07 alpha_mix =  0.700 |ddv_scf|^2 =  1.213E-11

      iter #   9 total cpu time :   141.2 secs   av.it.:  15.0
      thresh= 3.483E-07 alpha_mix =  0.700 |ddv_scf|^2 =  6.233E-13

      iter #  10 total cpu time :   141.7 secs   av.it.:  15.4
      thresh= 7.895E-08 alpha_mix =  0.700 |ddv_scf|^2 =  2.583E-13

      iter #  11 total cpu time :   142.2 secs   av.it.:  15.1
      thresh= 5.082E-08 alpha_mix =  0.700 |ddv_scf|^2 =  3.641E-14

      iter #  12 total cpu time :   142.7 secs   av.it.:  15.1
      thresh= 1.908E-08 alpha_mix =  0.700 |ddv_scf|^2 =  3.594E-14

      iter #  13 total cpu time :   143.2 secs   av.it.:  14.4
      thresh= 1.896E-08 alpha_mix =  0.700 |ddv_scf|^2 =  7.420E-15

     End of self-consistent calculation

     Convergence has been achieved 


     Representation #  5 mode #   5

     Self-consistent Calculation

      iter #   1 total cpu time :   143.5 secs   av.it.:   7.0
      thresh= 1.000E-02 alpha_mix =  0.700 |ddv_scf|^2 =  2.899E-07

      iter #   2 total cpu time :   144.1 secs   av.it.:  16.0
      thresh= 5.384E-05 alpha_mix =  0.700 |ddv_scf|^2 =  1.738E-06

      iter #   3 total cpu time :   144.5 secs   av.it.:  13.7
      thresh= 1.318E-04 alpha_mix =  0.700 |ddv_scf|^2 =  1.999E-08

      iter #   4 total cpu time :   145.0 secs   av.it.:  14.9
      thresh= 1.414E-05 alpha_mix =  0.700 |ddv_scf|^2 =  9.103E-09

      iter #   5 total cpu time :   145.5 secs   av.it.:  14.3
      thresh= 9.541E-06 alpha_mix =  0.700 |ddv_scf|^2 =  1.531E-10

      iter #   6 total cpu time :   146.0 secs   av.it.:  14.9
      thresh= 1.237E-06 alpha_mix =  0.700 |ddv_scf|^2 =  4.883E-11

      iter #   7 total cpu time :   146.5 secs   av.it.:  14.9
      thresh= 6.988E-07 alpha_mix =  0.700 |ddv_scf|^2 =  1.976E-11

      iter #   8 total cpu time :   147.0 secs   av.it.:  14.5
      thresh= 4.446E-07 alpha_mix =  0.700 |ddv_scf|^2 =  4.567E-13

      iter #   9 total cpu time :   147.5 secs   av.it.:  15.3
      thresh= 6.758E-08 alpha_mix =  0.700 |ddv_scf|^2 =  1.319E-12

      iter #  10 total cpu time :   148.0 secs   av.it.:  13.1
      thresh= 1.148E-07 alpha_mix =  0.700 |ddv_scf|^2 =  6.261E-14

      iter #  11 total cpu time :   148.5 secs   av.it.:  15.2
      thresh= 2.502E-08 alpha_mix =  0.700 |ddv_scf|^2 =  2.366E-14

      iter #  12 total cpu time :   149.0 secs   av.it.:  14.5
      thresh= 1.538E-08 alpha_mix =  0.700 |ddv_scf|^2 =  1.469E-15

     End of self-consistent calculation

     Convergence has been achieved 


     Representation #  6 mode #   6

     Self-consistent Calculation

      iter #   1 total cpu time :   149.4 secs   av.it.:   8.3
      thresh= 1.000E-02 alpha_mix =  0.700 |ddv_scf|^2 =  2.194E-06

      iter #   2 total cpu time :   149.9 secs   av.it.:  15.9
      thresh= 1.481E-04 alpha_mix =  0.700 |ddv_scf|^2 =  1.161E-05

      iter #   3 total cpu time :   150.4 secs   av.it.:  13.2
      thresh= 3.408E-04 alpha_mix =  0.700 |ddv_scf|^2 =  2.134E-07

      iter #   4 total cpu time :   150.9 secs   av.it.:  14.8
      thresh= 4.619E-05 alpha_mix =  0.700 |ddv_scf|^2 =  6.049E-08

      iter #   5 total cpu time :   151.4 secs   av.it.:  14.6
      thresh= 2.460E-05 alpha_mix =  0.700 |ddv_scf|^2 =  2.193E-10

      iter #   6 total cpu time :   151.9 secs   av.it.:  15.8
      thresh= 1.481E-06 alpha_mix =  0.700 |ddv_scf|^2 =  3.429E-10

      iter #   7 total cpu time :   152.4 secs   av.it.:  14.4
      thresh= 1.852E-06 alpha_mix =  0.700 |ddv_scf|^2 =  1.065E-11

      iter #   8 total cpu time :   152.9 secs   av.it.:  15.7
      thresh= 3.263E-07 alpha_mix =  0.700 |ddv_scf|^2 =  1.089E-11

      iter #   9 total cpu time :   153.4 secs   av.it.:  15.0
      thresh= 3.301E-07 alpha_mix =  0.700 |ddv_scf|^2 =  5.796E-13

      iter #  10 total cpu time :   153.9 secs   av.it.:  15.3
      thresh= 7.613E-08 alpha_mix =  0.700 |ddv_scf|^2 =  1.846E-13

      iter #  11 total cpu time :   154.4 secs   av.it.:  15.2
      thresh= 4.297E-08 alpha_mix =  0.700 |ddv_scf|^2 =  2.390E-14

      iter #  12 total cpu time :   154.9 secs   av.it.:  15.3
      thresh= 1.546E-08 alpha_mix =  0.700 |ddv_scf|^2 =  3.961E-15

     End of self-consistent calculation

     Convergence has been achieved 


     Representation #  7 mode #   7

     Self-consistent Calculation

      iter #   1 total cpu time :   155.3 secs   av.it.:   7.7
      thresh= 1.000E-02 alpha_mix =  0.700 |ddv_scf|^2 =  2.444E-06

      iter #   2 total cpu time :   155.8 secs   av.it.:  15.5
      thresh= 1.563E-04 alpha_mix =  0.700 |ddv_scf|^2 =  1.783E-05

      iter #   3 total cpu time :   156.3 secs   av.it.:  13.2
      thresh= 4.222E-04 alpha_mix =  0.700 |ddv_scf|^2 =  5.632E-08

      iter #   4 total cpu time :   156.8 secs   av.it.:  14.6
      thresh= 2.373E-05 alpha_mix =  0.700 |ddv_scf|^2 =  1.393E-08

      iter #   5 total cpu time :   157.3 secs   av.it.:  14.4
      thresh= 1.180E-05 alpha_mix =  0.700 |ddv_scf|^2 =  4.047E-10

      iter #   6 total cpu time :   157.8 secs   av.it.:  15.2
      thresh= 2.012E-06 alpha_mix =  0.700 |ddv_scf|^2 =  2.245E-10

      iter #   7 total cpu time :   158.3 secs   av.it.:  14.6
      thresh= 1.498E-06 alpha_mix =  0.700 |ddv_scf|^2 =  2.298E-11

      iter #   8 total cpu time :   158.8 secs   av.it.:  14.4
      thresh= 4.794E-07 alpha_mix =  0.700 |ddv_scf|^2 =  3.100E-13

      iter #   9 total cpu time :   159.3 secs   av.it.:  15.8
      thresh= 5.568E-08 alpha_mix =  0.700 |ddv_scf|^2 =  3.455E-13

      iter #  10 total cpu time :   159.8 secs   av.it.:  15.1
      thresh= 5.878E-08 alpha_mix =  0.700 |ddv_scf|^2 =  2.247E-13

      iter #  11 total cpu time :   160.3 secs   av.it.:  14.7
      thresh= 4.740E-08 alpha_mix =  0.700 |ddv_scf|^2 =  5.379E-14

      iter #  12 total cpu time :   160.8 secs   av.it.:  15.2
      thresh= 2.319E-08 alpha_mix =  0.700 |ddv_scf|^2 =  4.250E-14

      iter #  13 total cpu time :   161.3 secs   av.it.:  14.3
      thresh= 2.062E-08 alpha_mix =  0.700 |ddv_scf|^2 =  3.508E-15

     End of self-consistent calculation

     Convergence has been achieved 


     Representation #  8 mode #   8

     Self-consistent Calculation

      iter #   1 total cpu time :   161.7 secs   av.it.:   7.7
      thresh= 1.000E-02 alpha_mix =  0.700 |ddv_scf|^2 =  2.470E-06

      iter #   2 total cpu time :   162.2 secs   av.it.:  15.5
      thresh= 1.572E-04 alpha_mix =  0.700 |ddv_scf|^2 =  1.805E-05

      iter #   3 total cpu time :   162.7 secs   av.it.:  13.2
      thresh= 4.248E-04 alpha_mix =  0.700 |ddv_scf|^2 =  5.568E-08

      iter #   4 total cpu time :   163.1 secs   av.it.:  14.6
      thresh= 2.360E-05 alpha_mix =  0.700 |ddv_scf|^2 =  1.363E-08

      iter #   5 total cpu time :   163.6 secs   av.it.:  14.4
      thresh= 1.167E-05 alpha_mix =  0.700 |ddv_scf|^2 =  3.705E-10

      iter #   6 total cpu time :   164.1 secs   av.it.:  15.2
      thresh= 1.925E-06 alpha_mix =  0.700 |ddv_scf|^2 =  2.155E-10

      iter #   7 total cpu time :   164.6 secs   av.it.:  14.6
      thresh= 1.468E-06 alpha_mix =  0.700 |ddv_scf|^2 =  2.113E-11

      iter #   8 total cpu time :   165.1 secs   av.it.:  14.5
      thresh= 4.596E-07 alpha_mix =  0.700 |ddv_scf|^2 =  3.124E-13

      iter #   9 total cpu time :   165.6 secs   av.it.:  15.8
      thresh= 5.590E-08 alpha_mix =  0.700 |ddv_scf|^2 =  3.557E-13

      iter #  10 total cpu time :   166.1 secs   av.it.:  15.1
      thresh= 5.964E-08 alpha_mix =  0.700 |ddv_scf|^2 =  2.285E-13

      iter #  11 total cpu time :   166.6 secs   av.it.:  14.7
      thresh= 4.780E-08 alpha_mix =  0.700 |ddv_scf|^2 =  5.219E-14

      iter #  12 total cpu time :   167.1 secs   av.it.:  15.3
      thresh= 2.284E-08 alpha_mix =  0.700 |ddv_scf|^2 =  4.294E-14

      iter #  13 total cpu time :   167.6 secs   av.it.:  14.3
      thresh= 2.072E-08 alpha_mix =  0.700 |ddv_scf|^2 =  3.452E-15

     End of self-consistent calculation

     Convergence has been achieved 


     Representation #  9 mode #   9

     Self-consistent Calculation

      iter #   1 total cpu time :   168.0 secs   av.it.:   7.2
      thresh= 1.000E-02 alpha_mix =  0.700 |ddv_scf|^2 =  1.461E-07

      iter #   2 total cpu time :   168.5 secs   av.it.:  15.3
      thresh= 3.822E-05 alpha_mix =  0.700 |ddv_scf|^2 =  3.530E-08

      iter #   3 total cpu time :   169.0 secs   av.it.:  14.3
      thresh= 1.879E-05 alpha_mix =  0.700 |ddv_scf|^2 =  4.242E-10

      iter #   4 total cpu time :   169.5 secs   av.it.:  14.5
      thresh= 2.060E-06 alpha_mix =  0.700 |ddv_scf|^2 =  3.101E-11

      iter #   5 total cpu time :   170.0 secs   av.it.:  14.8
      thresh= 5.569E-07 alpha_mix =  0.700 |ddv_scf|^2 =  1.090E-12

      iter #   6 total cpu time :   170.5 secs   av.it.:  15.1
      thresh= 1.044E-07 alpha_mix =  0.700 |ddv_scf|^2 =  2.810E-14

      iter #   7 total cpu time :   171.0 secs   av.it.:  15.3
      thresh= 1.676E-08 alpha_mix =  0.700 |ddv_scf|^2 =  9.791E-16

     End of self-consistent calculation

     Convergence has been achieved 


     Representation # 10 mode #  10

     Self-consistent Calculation

      iter #   1 total cpu time :   171.4 secs   av.it.:   8.0
      thresh= 1.000E-02 alpha_mix =  0.700 |ddv_scf|^2 =  1.339E-06

      iter #   2 total cpu time :   171.9 secs   av.it.:  15.4
      thresh= 1.157E-04 alpha_mix =  0.700 |ddv_scf|^2 =  2.891E-07

      iter #   3 total cpu time :   172.4 secs   av.it.:  14.6
      thresh= 5.377E-05 alpha_mix =  0.700 |ddv_scf|^2 =  1.772E-09

      iter #   4 total cpu time :   172.9 secs   av.it.:  14.9
      thresh= 4.209E-06 alpha_mix =  0.700 |ddv_scf|^2 =  4.155E-11

      iter #   5 total cpu time :   173.4 secs   av.it.:  14.6
      thresh= 6.446E-07 alpha_mix =  0.700 |ddv_scf|^2 =  3.146E-12

      iter #   6 total cpu time :   173.9 secs   av.it.:  14.8
      thresh= 1.774E-07 alpha_mix =  0.700 |ddv_scf|^2 =  1.490E-13

      iter #   7 total cpu time :   174.4 secs   av.it.:  14.8
      thresh= 3.860E-08 alpha_mix =  0.700 |ddv_scf|^2 =  1.302E-14

      iter #   8 total cpu time :   174.9 secs   av.it.:  15.0
      thresh= 1.141E-08 alpha_mix =  0.700 |ddv_scf|^2 =  3.367E-16

     End of self-consistent calculation

     Convergence has been achieved 


     Representation # 11 mode #  11

     Self-consistent Calculation

      iter #   1 total cpu time :   175.3 secs   av.it.:   8.1
      thresh= 1.000E-02 alpha_mix =  0.700 |ddv_scf|^2 =  1.340E-06

      iter #   2 total cpu time :   175.8 secs   av.it.:  15.4
      thresh= 1.158E-04 alpha_mix =  0.700 |ddv_scf|^2 =  2.891E-07

      iter #   3 total cpu time :   176.3 secs   av.it.:  14.6
      thresh= 5.377E-05 alpha_mix =  0.700 |ddv_scf|^2 =  1.793E-09

      iter #   4 total cpu time :   176.8 secs   av.it.:  14.9
      thresh= 4.234E-06 alpha_mix =  0.700 |ddv_scf|^2 =  4.551E-11

      iter #   5 total cpu time :   177.3 secs   av.it.:  14.6
      thresh= 6.746E-07 alpha_mix =  0.700 |ddv_scf|^2 =  3.194E-12

      iter #   6 total cpu time :   177.7 secs   av.it.:  14.8
      thresh= 1.787E-07 alpha_mix =  0.700 |ddv_scf|^2 =  1.518E-13

      iter #   7 total cpu time :   178.3 secs   av.it.:  14.8
      thresh= 3.896E-08 alpha_mix =  0.700 |ddv_scf|^2 =  1.352E-14

      iter #   8 total cpu time :   178.8 secs   av.it.:  14.9
      thresh= 1.163E-08 alpha_mix =  0.700 |ddv_scf|^2 =  3.380E-16

     End of self-consistent calculation

     Convergence has been achieved 


     Representation # 12 mode #  12

     Self-consistent Calculation

      iter #   1 total cpu time :   179.1 secs   av.it.:   7.2
      thresh= 1.000E-02 alpha_mix =  0.700 |ddv_scf|^2 =  1.471E-07

      iter #   2 total cpu time :   179.7 secs   av.it.:  15.2
      thresh= 3.835E-05 alpha_mix =  0.700 |ddv_scf|^2 =  3.539E-08

      iter #   3 total cpu time :   180.2 secs   av.it.:  14.3
      thresh= 1.881E-05 alpha_mix =  0.700 |ddv_scf|^2 =  4.576E-10

      iter #   4 total cpu time :   180.7 secs   av.it.:  14.5
      thresh= 2.139E-06 alpha_mix =  0.700 |ddv_scf|^2 =  3.161E-11

      iter #   5 total cpu time :   181.2 secs   av.it.:  14.8
      thresh= 5.622E-07 alpha_mix =  0.700 |ddv_scf|^2 =  1.098E-12

      iter #   6 total cpu time :   181.7 secs   av.it.:  15.1
      thresh= 1.048E-07 alpha_mix =  0.700 |ddv_scf|^2 =  2.814E-14

      iter #   7 total cpu time :   182.2 secs   av.it.:  15.3
      thresh= 1.677E-08 alpha_mix =  0.700 |ddv_scf|^2 =  9.827E-16

     End of self-consistent calculation

     Convergence has been achieved 
 
     Number of q in the star =    4
     List of q in the star:
          1   0.333333333   0.333333333   0.000000000
          2   0.333333333  -0.333333333   0.000000000
          3  -0.333333333   0.333333333   0.000000000
          4  -0.333333333  -0.333333333   0.000000000

     Diagonalizing the dynamical matrix

     q = (    0.333333333   0.333333333   0.000000000 ) 

 **************************************************************************
     freq (    1) =       4.262107 [THz] =     142.168598 [cm-1]
     freq (    2) =       5.983943 [THz] =     199.602865 [cm-1]
     freq (    3) =       6.209250 [THz] =     207.118287 [cm-1]
     freq (    4) =       6.938108 [THz] =     231.430364 [cm-1]
     freq (    5) =       7.338328 [THz] =     244.780269 [cm-1]
     freq (    6) =       7.453247 [THz] =     248.613553 [cm-1]
     freq (    7) =      10.757715 [THz] =     358.838739 [cm-1]
     freq (    8) =      11.407329 [THz] =     380.507530 [cm-1]
     freq (    9) =      16.891945 [THz] =     563.454642 [cm-1]
     freq (   10) =      17.185401 [THz] =     573.243281 [cm-1]
     freq (   11) =      17.833602 [THz] =     594.864927 [cm-1]
     freq (   12) =      18.158135 [THz] =     605.690181 [cm-1]
 **************************************************************************

     Mode symmetry, C_s (m)     point group:

     freq (  1 -  1) =        142.2  [cm-1]   --> A'                 
     freq (  2 -  2) =        199.6  [cm-1]   --> A'                 
     freq (  3 -  3) =        207.1  [cm-1]   --> A''                
     freq (  4 -  4) =        231.4  [cm-1]   --> A''                
     freq (  5 -  5) =        244.8  [cm-1]   --> A'                 
     freq (  6 -  6) =        248.6  [cm-1]   --> A'                 
     freq (  7 -  7) =        358.8  [cm-1]   --> A'                 
     freq (  8 -  8) =        380.5  [cm-1]   --> A'                 
     freq (  9 -  9) =        563.5  [cm-1]   --> A''                
     freq ( 10 - 10) =        573.2  [cm-1]   --> A''                
     freq ( 11 - 11) =        594.9  [cm-1]   --> A'                 
     freq ( 12 - 12) =        605.7  [cm-1]   --> A'                 
 
     init_run     :      0.16s CPU      0.20s WALL (       2 calls)
     electrons    :      5.72s CPU      5.99s WALL (       2 calls)

     Called by init_run:
     wfcinit      :      0.00s CPU      0.03s WALL (       2 calls)
     potinit      :      0.01s CPU      0.02s WALL (       2 calls)
     hinit0       :      0.05s CPU      0.05s WALL (       2 calls)

     Called by electrons:
     c_bands      :      5.71s CPU      5.97s WALL (       2 calls)
     v_of_rho     :      0.02s CPU      0.03s WALL (       3 calls)

     Called by c_bands:
     init_us_2    :      0.67s CPU      0.81s WALL (    2178 calls)
     cegterg      :      3.46s CPU      3.59s WALL (      48 calls)

     Called by sum_band:

     Called by *egterg:
     h_psi        :    108.68s CPU    113.74s WALL (   42080 calls)
     g_psi        :      0.02s CPU      0.02s WALL (     753 calls)
     cdiaghg      :      0.85s CPU      0.88s WALL (     777 calls)

     Called by h_psi:
     h_psi:pot    :    108.21s CPU    113.25s WALL (   42080 calls)
     h_psi:calbec :      6.54s CPU      6.83s WALL (   42080 calls)
     vloc_psi     :     97.26s CPU    101.80s WALL (   42080 calls)
     add_vuspsi   :      4.19s CPU      4.41s WALL (   42080 calls)

     General routines
     calbec       :     12.26s CPU     12.78s WALL (   84163 calls)
     fft          :      1.95s CPU      2.00s WALL (    4686 calls)
     ffts         :      0.24s CPU      0.25s WALL (     728 calls)
     fftw         :    100.83s CPU    106.00s WALL (  654440 calls)
     davcio       :      0.84s CPU      1.35s WALL (   13374 calls)
 
     Parallel routines
     fft_scatt_xy :     14.96s CPU     15.69s WALL (  659854 calls)
     fft_scatt_yz :     27.94s CPU     29.73s WALL (  659854 calls)
 
     PHONON       :   2m46.10s CPU   3m 2.34s WALL

     INITIALIZATION: 
     phq_setup    :      0.07s CPU      0.09s WALL (       3 calls)
     phq_init     :      0.19s CPU      0.21s WALL (       3 calls)
 
     phq_init     :      0.19s CPU      0.21s WALL (       3 calls)
     init_vloc    :      0.03s CPU      0.04s WALL (       3 calls)
     init_us_1    :      0.02s CPU      0.02s WALL (       3 calls)
 
     DYNAMICAL MATRIX:
     dynmat0      :      0.07s CPU      0.09s WALL (       3 calls)
     phqscf       :    159.56s CPU    174.75s WALL (       3 calls)
     dynmatrix    :      0.01s CPU      0.03s WALL (       3 calls)
 
     phqscf       :    159.56s CPU    174.75s WALL (       3 calls)
     solve_linter :    159.07s CPU    173.71s WALL (      32 calls)
     drhodv       :      0.41s CPU      0.44s WALL (      32 calls)
 
     dynmat0      :      0.07s CPU      0.09s WALL (       3 calls)
     dynmat_us    :      0.05s CPU      0.05s WALL (       3 calls)
     d2ionq       :      0.01s CPU      0.02s WALL (       3 calls)
 
     dynmat_us    :      0.05s CPU      0.05s WALL (       3 calls)
 
     phqscf       :    159.56s CPU    174.75s WALL (       3 calls)
     solve_linter :    159.07s CPU    173.71s WALL (      32 calls)
 
     solve_linter :    159.07s CPU    173.71s WALL (      32 calls)
     dvqpsi_us    :      0.91s CPU      0.95s WALL (     168 calls)
     ortho        :      0.41s CPU      0.44s WALL (    1998 calls)
     cgsolve      :    123.39s CPU    128.97s WALL (    1998 calls)
     incdrhoscf   :      7.41s CPU      8.04s WALL (    1998 calls)
     vpsifft      :      6.34s CPU      6.88s WALL (    1830 calls)
     dv_of_drho   :      2.38s CPU      2.44s WALL (     403 calls)
     mix_pot      :      0.44s CPU      2.33s WALL (     379 calls)
     ef_shift     :      0.08s CPU      0.12s WALL (      89 calls)
     localdos     :      0.13s CPU      0.14s WALL (       8 calls)
     psymdvscf    :      7.81s CPU      8.11s WALL (     379 calls)
 
     dvqpsi_us    :      0.91s CPU      0.95s WALL (     168 calls)
     dvqpsi_us_on :      0.10s CPU      0.10s WALL (     168 calls)
 
     cgsolve      :    123.39s CPU    128.97s WALL (    1998 calls)
     ch_psi       :    118.76s CPU    124.15s WALL (   41255 calls)
 
     ch_psi       :    118.76s CPU    124.15s WALL (   41255 calls)
     h_psi        :    108.68s CPU    113.74s WALL (   42080 calls)
     last         :     11.48s CPU     11.93s WALL (   41255 calls)
 
     h_psi        :    108.68s CPU    113.74s WALL (   42080 calls)
     add_vuspsi   :      4.19s CPU      4.41s WALL (   42080 calls)
 
     incdrhoscf   :      7.41s CPU      8.04s WALL (    1998 calls)
 
 
      General routines
     calbec       :     12.26s CPU     12.78s WALL (   84163 calls)
     fft          :      1.95s CPU      2.00s WALL (    4686 calls)
     ffts         :      0.24s CPU      0.25s WALL (     728 calls)
     fftw         :    100.83s CPU    106.00s WALL (  654440 calls)
     davcio       :      0.84s CPU      1.35s WALL (   13374 calls)
     write_rec    :      0.61s CPU      5.63s WALL (     411 calls)
 
 
     PHONON       :   2m46.10s CPU   3m 2.34s WALL

 
   This run was terminated on:  10:41:16  29Oct2019            

=------------------------------------------------------------------------------=
   JOB DONE.
=------------------------------------------------------------------------------=
