nqpoint: 153    
npath: 3      
segment_nqpoint:
- 51
- 51
- 51
labels:
- [ '$\Gamma$', 'M' ]
- [ 'M', 'K' ]
- [ 'K', '$\Gamma$' ]
reciprocal_lattice:
- [   0.27081348,   0.15635424,   0.00000000 ] # a*
- [   0.00000000,   0.31270847,   0.00000000 ] # b*
- [   0.00000000,   0.00000000,   0.04637985 ] # c*
natom: 5      
lattice:
- [     3.692578387901257,     0.000000000000000,     0.000000000000000 ] # a
- [    -1.846289193950629,     3.197866689387877,     0.000000000000000 ] # b
- [     0.000000000000000,     0.000000000000000,    21.561087177406161 ] # c
points:
- symbol: Gd # 1
  coordinates: [  0.666666666666664,  0.333333333333336,  0.935573175246388 ]
  mass: 157.250000
- symbol: Gd # 2
  coordinates: [  0.333333333333336,  0.666666666666664,  0.064426824753612 ]
  mass: 157.250000
- symbol: Cl # 3
  coordinates: [  0.666666666666664,  0.333333333333336,  0.147653811378543 ]
  mass: 35.453000
- symbol: Cl # 4
  coordinates: [  0.333333333333336,  0.666666666666664,  0.852346188621457 ]
  mass: 35.453000
- symbol: C  # 5
  coordinates: [  0.000000000000000,  0.000000000000000,  0.000000000000000 ]
  mass: 12.010700

phonon:
- q-position: [    0.0000000,    0.0000000,    0.0000000 ]
  distance:    0.0000000
  band:
  - # 1
    frequency:   -0.0050097616
  - # 2
    frequency:   -0.0050097616
  - # 3
    frequency:   -0.0026073766
  - # 4
    frequency:    2.5671862474
  - # 5
    frequency:    2.5671862474
  - # 6
    frequency:    3.1414285044
  - # 7
    frequency:    3.1414285044
  - # 8
    frequency:    4.2776842291
  - # 9
    frequency:    4.3460254963
  - # 10
    frequency:    4.3460254963
  - # 11
    frequency:    7.2561654340
  - # 12
    frequency:    7.2897180653
  - # 13
    frequency:    7.2897180653
  - # 14
    frequency:    7.7308666101
  - # 15
    frequency:   15.8345985359

- q-position: [    0.0100000,    0.0000000,    0.0000000 ]
  distance:    0.0031271
  band:
  - # 1
    frequency:   -0.0085218652
  - # 2
    frequency:    0.0826340573
  - # 3
    frequency:    0.1310418422
  - # 4
    frequency:    2.5677815883
  - # 5
    frequency:    2.5697860901
  - # 6
    frequency:    3.1453054458
  - # 7
    frequency:    3.1577571293
  - # 8
    frequency:    4.2777592833
  - # 9
    frequency:    4.3462959474
  - # 10
    frequency:    4.3476973280
  - # 11
    frequency:    7.2550254353
  - # 12
    frequency:    7.2915018164
  - # 13
    frequency:    7.2982217552
  - # 14
    frequency:    7.7312607596
  - # 15
    frequency:   15.8299363990

- q-position: [    0.0200000,    0.0000000,    0.0000000 ]
  distance:    0.0062542
  band:
  - # 1
    frequency:   -0.0101189584
  - # 2
    frequency:    0.1653408022
  - # 3
    frequency:    0.2621952408
  - # 4
    frequency:    2.5695681355
  - # 5
    frequency:    2.5775763565
  - # 6
    frequency:    3.1568497428
  - # 7
    frequency:    3.2053292283
  - # 8
    frequency:    4.2781448269
  - # 9
    frequency:    4.3471048603
  - # 10
    frequency:    4.3527019995
  - # 11
    frequency:    7.2515925623
  - # 12
    frequency:    7.2968435444
  - # 13
    frequency:    7.3231542344
  - # 14
    frequency:    7.7331461435
  - # 15
    frequency:   15.8159677027

- q-position: [    0.0300000,    0.0000000,    0.0000000 ]
  distance:    0.0093813
  band:
  - # 1
    frequency:    0.0199489354
  - # 2
    frequency:    0.2476931154
  - # 3
    frequency:    0.3932547978
  - # 4
    frequency:    2.5725459904
  - # 5
    frequency:    2.5905013036
  - # 6
    frequency:    3.1758070100
  - # 7
    frequency:    3.2801203803
  - # 8
    frequency:    4.2793568521
  - # 9
    frequency:    4.3484449458
  - # 10
    frequency:    4.3610043506
  - # 11
    frequency:    7.2458762499
  - # 12
    frequency:    7.3057145804
  - # 13
    frequency:    7.3622869066
  - # 14
    frequency:    7.7390580494
  - # 15
    frequency:   15.7927455776

- q-position: [    0.0400000,    0.0000000,    0.0000000 ]
  distance:    0.0125083
  band:
  - # 1
    frequency:    0.0471325591
  - # 2
    frequency:    0.3295912320
  - # 3
    frequency:    0.5242170446
  - # 4
    frequency:    2.5767110147
  - # 5
    frequency:    2.6084119370
  - # 6
    frequency:    3.2017696669
  - # 7
    frequency:    3.3760185487
  - # 8
    frequency:    4.2823784228
  - # 9
    frequency:    4.3503041637
  - # 10
    frequency:    4.3725402160
  - # 11
    frequency:    7.2379137128
  - # 12
    frequency:    7.3180668383
  - # 13
    frequency:    7.4102313951
  - # 14
    frequency:    7.7548132989
  - # 15
    frequency:   15.7603585355

- q-position: [    0.0500000,    0.0000000,    0.0000000 ]
  distance:    0.0156354
  band:
  - # 1
    frequency:    0.0800872586
  - # 2
    frequency:    0.4109201668
  - # 3
    frequency:    0.6550605126
  - # 4
    frequency:    2.5820501188
  - # 5
    frequency:    2.6310515330
  - # 6
    frequency:    3.2341986939
  - # 7
    frequency:    3.4853852330
  - # 8
    frequency:    4.2888710576
  - # 9
    frequency:    4.3526658872
  - # 10
    frequency:    4.3872147734
  - # 11
    frequency:    7.2277561226
  - # 12
    frequency:    7.3338323905
  - # 13
    frequency:    7.4564000371
  - # 14
    frequency:    7.7914720723
  - # 15
    frequency:   15.7189304257

- q-position: [    0.0600000,    0.0000000,    0.0000000 ]
  distance:    0.0187625
  band:
  - # 1
    frequency:    0.1192169286
  - # 2
    frequency:    0.4915774548
  - # 3
    frequency:    0.7857588644
  - # 4
    frequency:    2.5885371792
  - # 5
    frequency:    2.6580764513
  - # 6
    frequency:    3.2724495603
  - # 7
    frequency:    3.5994417451
  - # 8
    frequency:    4.3015046258
  - # 9
    frequency:    4.3555091343
  - # 10
    frequency:    4.4049047421
  - # 11
    frequency:    7.2154672546
  - # 12
    frequency:    7.3529229385
  - # 13
    frequency:    7.4875139597
  - # 14
    frequency:    7.8627080044
  - # 15
    frequency:   15.6686204004

- q-position: [    0.0700000,    0.0000000,    0.0000000 ]
  distance:    0.0218896
  band:
  - # 1
    frequency:    0.1642472570
  - # 2
    frequency:    0.5714774861
  - # 3
    frequency:    0.9162797902
  - # 4
    frequency:    2.5961305494
  - # 5
    frequency:    2.6890894681
  - # 6
    frequency:    3.3157996951
  - # 7
    frequency:    3.7085107363
  - # 8
    frequency:    4.3242795937
  - # 9
    frequency:    4.3588088708
  - # 10
    frequency:    4.4254627862
  - # 11
    frequency:    7.2011239049
  - # 12
    frequency:    7.3752292406
  - # 13
    frequency:    7.4980697637
  - # 14
    frequency:    7.9741991628
  - # 15
    frequency:   15.6096229251

- q-position: [    0.0800000,    0.0000000,    0.0000000 ]
  distance:    0.0250167
  band:
  - # 1
    frequency:    0.2147572370
  - # 2
    frequency:    0.6505516140
  - # 3
    frequency:    1.0465822396
  - # 4
    frequency:    2.6047723866
  - # 5
    frequency:    2.7236698308
  - # 6
    frequency:    3.3634755346
  - # 7
    frequency:    3.8027500231
  - # 8
    frequency:    4.3621763281
  - # 9
    frequency:    4.3625363882
  - # 10
    frequency:    4.4487237968
  - # 11
    frequency:    7.1848160302
  - # 12
    frequency:    7.4006205783
  - # 13
    frequency:    7.4921600906
  - # 14
    frequency:    8.1216694723
  - # 15
    frequency:   15.5421678821

- q-position: [    0.0900000,    0.0000000,    0.0000000 ]
  distance:    0.0281438
  band:
  - # 1
    frequency:    0.2702745938
  - # 2
    frequency:    0.7287464729
  - # 3
    frequency:    1.1766134822
  - # 4
    frequency:    2.6143894837
  - # 5
    frequency:    2.7613955518
  - # 6
    frequency:    3.4146778436
  - # 7
    frequency:    3.8746463526
  - # 8
    frequency:    4.3666597615
  - # 9
    frequency:    4.4188614285
  - # 10
    frequency:    4.4745217742
  - # 11
    frequency:    7.1666466502
  - # 12
    frequency:    7.4289443527
  - # 13
    frequency:    7.4752834317
  - # 14
    frequency:    8.2989741559
  - # 15
    frequency:   15.4665208404

- q-position: [    0.1000000,    0.0000000,    0.0000000 ]
  distance:    0.0312708
  band:
  - # 1
    frequency:    0.3303116353
  - # 2
    frequency:    0.8060213424
  - # 3
    frequency:    1.3063061276
  - # 4
    frequency:    2.6248950786
  - # 5
    frequency:    2.8018585807
  - # 6
    frequency:    3.4686044808
  - # 7
    frequency:    3.9225446162
  - # 8
    frequency:    4.3711443962
  - # 9
    frequency:    4.4927933546
  - # 10
    frequency:    4.5031201212
  - # 11
    frequency:    7.1467316102
  - # 12
    frequency:    7.4509823349
  - # 13
    frequency:    7.4600259134
  - # 14
    frequency:    8.5014157409
  - # 15
    frequency:   15.3829836007

- q-position: [    0.1100000,    0.0000000,    0.0000000 ]
  distance:    0.0343979
  band:
  - # 1
    frequency:    0.3943837409
  - # 2
    frequency:    0.8823450852
  - # 3
    frequency:    1.4355749235
  - # 4
    frequency:    2.6361911378
  - # 5
    frequency:    2.8446745779
  - # 6
    frequency:    3.5244700923
  - # 7
    frequency:    3.9506824145
  - # 8
    frequency:    4.3759536725
  - # 9
    frequency:    4.5325065418
  - # 10
    frequency:    4.5798347474
  - # 11
    frequency:    7.1251992437
  - # 12
    frequency:    7.4212601118
  - # 13
    frequency:    7.4936687251
  - # 14
    frequency:    8.7253522376
  - # 15
    frequency:   15.2918951781

- q-position: [    0.1200000,    0.0000000,    0.0000000 ]
  distance:    0.0375250
  band:
  - # 1
    frequency:    0.4620197688
  - # 2
    frequency:    0.9576930553
  - # 3
    frequency:    1.5643130866
  - # 4
    frequency:    2.6481707477
  - # 5
    frequency:    2.8894888466
  - # 6
    frequency:    3.5815224372
  - # 7
    frequency:    3.9652258387
  - # 8
    frequency:    4.3810497032
  - # 9
    frequency:    4.5646289896
  - # 10
    frequency:    4.6708353656
  - # 11
    frequency:    7.1021899454
  - # 12
    frequency:    7.3872968412
  - # 13
    frequency:    7.5296549682
  - # 14
    frequency:    8.9675687262
  - # 15
    frequency:   15.1936334712

- q-position: [    0.1300000,    0.0000000,    0.0000000 ]
  distance:    0.0406521
  band:
  - # 1
    frequency:    0.5327677030
  - # 2
    frequency:    1.0320442502
  - # 3
    frequency:    1.6923879149
  - # 4
    frequency:    2.6607203956
  - # 5
    frequency:    2.9359796487
  - # 6
    frequency:    3.6390552307
  - # 7
    frequency:    3.9712572533
  - # 8
    frequency:    4.3863942180
  - # 9
    frequency:    4.5983665651
  - # 10
    frequency:    4.7614821289
  - # 11
    frequency:    7.0778556558
  - # 12
    frequency:    7.3498581079
  - # 13
    frequency:    7.5677466587
  - # 14
    frequency:    9.2249947659
  - # 15
    frequency:   15.0886180045

- q-position: [    0.1400000,    0.0000000,    0.0000000 ]
  distance:    0.0437792
  band:
  - # 1
    frequency:    0.6061972934
  - # 2
    frequency:    1.1053788775
  - # 3
    frequency:    1.8196354225
  - # 4
    frequency:    2.6737220366
  - # 5
    frequency:    2.9838598441
  - # 6
    frequency:    3.6964175433
  - # 7
    frequency:    3.9722109722
  - # 8
    frequency:    4.3919495967
  - # 9
    frequency:    4.6335455693
  - # 10
    frequency:    4.8486490112
  - # 11
    frequency:    7.0523592558
  - # 12
    frequency:    7.3094984046
  - # 13
    frequency:    7.6076873452
  - # 14
    frequency:    9.4946356216
  - # 15
    frequency:   14.9773143613

- q-position: [    0.1500000,    0.0000000,    0.0000000 ]
  distance:    0.0469063
  band:
  - # 1
    frequency:    0.6819008173
  - # 2
    frequency:    1.1776764103
  - # 3
    frequency:    1.9458537099
  - # 4
    frequency:    2.6870549170
  - # 5
    frequency:    3.0328775542
  - # 6
    frequency:    3.7530199313
  - # 7
    frequency:    3.9702913681
  - # 8
    frequency:    4.3976800733
  - # 9
    frequency:    4.6699620240
  - # 10
    frequency:    4.9307799317
  - # 11
    frequency:    7.0258738672
  - # 12
    frequency:    7.2666627385
  - # 13
    frequency:    7.6492044098
  - # 14
    frequency:    9.7735881455
  - # 15
    frequency:   14.8602413245

- q-position: [    0.1600000,    0.0000000,    0.0000000 ]
  distance:    0.0500334
  band:
  - # 1
    frequency:    0.7594927437
  - # 2
    frequency:    1.2489141374
  - # 3
    frequency:    2.0707947467
  - # 4
    frequency:    2.7005971611
  - # 5
    frequency:    3.0828163111
  - # 6
    frequency:    3.8083375697
  - # 7
    frequency:    3.9669359678
  - # 8
    frequency:    4.4035531312
  - # 9
    frequency:    4.7074143025
  - # 10
    frequency:    5.0072542350
  - # 11
    frequency:    6.9985820610
  - # 12
    frequency:    7.2217393419
  - # 13
    frequency:    7.6920119608
  - # 14
    frequency:   10.0590725495
  - # 15
    frequency:   14.7379824472

- q-position: [    0.1700000,    0.0000000,    0.0000000 ]
  distance:    0.0531604
  band:
  - # 1
    frequency:    0.8386088390
  - # 2
    frequency:    1.3190661689
  - # 3
    frequency:    2.1941542148
  - # 4
    frequency:    2.7142271514
  - # 5
    frequency:    3.1334948647
  - # 6
    frequency:    3.8619107376
  - # 7
    frequency:    3.9631274557
  - # 8
    frequency:    4.4095411087
  - # 9
    frequency:    4.7457094396
  - # 10
    frequency:    5.0779713936
  - # 11
    frequency:    6.9706749740
  - # 12
    frequency:    7.1750881730
  - # 13
    frequency:    7.7358142653
  - # 14
    frequency:   10.3484486160
  - # 15
    frequency:   14.6112050806

- q-position: [    0.1800000,    0.0000000,    0.0000000 ]
  distance:    0.0562875
  band:
  - # 1
    frequency:    0.9189050802
  - # 2
    frequency:    1.3881028309
  - # 3
    frequency:    2.3155591100
  - # 4
    frequency:    2.7278247301
  - # 5
    frequency:    3.1847663822
  - # 6
    frequency:    3.9133430499
  - # 7
    frequency:    3.9595832862
  - # 8
    frequency:    4.4156230155
  - # 9
    frequency:    4.7846663310
  - # 10
    frequency:    5.1430997367
  - # 11
    frequency:    6.9423513370
  - # 12
    frequency:    7.1270568247
  - # 13
    frequency:    7.7803096303
  - # 14
    frequency:   10.6392025173
  - # 15
    frequency:   14.4806923927

- q-position: [    0.1900000,    0.0000000,    0.0000000 ]
  distance:    0.0594146
  band:
  - # 1
    frequency:    1.0000566113
  - # 2
    frequency:    1.4559903754
  - # 3
    frequency:    2.4345530389
  - # 4
    frequency:    2.7412722570
  - # 5
    frequency:    3.2365160373
  - # 6
    frequency:    3.9568731662
  - # 7
    frequency:    3.9622978750
  - # 8
    frequency:    4.4217865252
  - # 9
    frequency:    4.8241179551
  - # 10
    frequency:    5.2029305373
  - # 11
    frequency:    6.9138164123
  - # 12
    frequency:    7.0779894944
  - # 13
    frequency:    7.8251946094
  - # 14
    frequency:   10.9288945500
  - # 15
    frequency:   14.3473989430

- q-position: [    0.2000000,    0.0000000,    0.0000000 ]
  distance:    0.0625417
  band:
  - # 1
    frequency:    1.0817568880
  - # 2
    frequency:    1.5226909345
  - # 3
    frequency:    2.5505798107
  - # 4
    frequency:    2.7544555489
  - # 5
    frequency:    3.2886546726
  - # 6
    frequency:    3.9554994119
  - # 7
    frequency:    4.0084934281
  - # 8
    frequency:    4.4280300441
  - # 9
    frequency:    4.8639129455
  - # 10
    frequency:    5.2577960759
  - # 11
    frequency:    6.8852808103
  - # 12
    frequency:    7.0282318754
  - # 13
    frequency:    7.8701683887
  - # 14
    frequency:   11.2150506886
  - # 15
    frequency:   14.2125509845

- q-position: [    0.2100000,    0.0000000,    0.0000000 ]
  distance:    0.0656688
  band:
  - # 1
    frequency:    1.1637170853
  - # 2
    frequency:    1.5881626533
  - # 3
    frequency:    2.6629674002
  - # 4
    frequency:    2.7672647284
  - # 5
    frequency:    3.3411039744
  - # 6
    frequency:    3.9559617996
  - # 7
    frequency:    4.0516971175
  - # 8
    frequency:    4.4343646316
  - # 9
    frequency:    4.9039165180
  - # 10
    frequency:    5.3080259374
  - # 11
    frequency:    6.8569590723
  - # 12
    frequency:    6.9781335128
  - # 13
    frequency:    7.9149371935
  - # 14
    frequency:   11.4949576924
  - # 15
    frequency:   14.0778361274

- q-position: [    0.2200000,    0.0000000,    0.0000000 ]
  distance:    0.0687959
  band:
  - # 1
    frequency:    1.2456657964
  - # 2
    frequency:    1.6523599511
  - # 3
    frequency:    2.7709171524
  - # 4
    frequency:    2.7795950038
  - # 5
    frequency:    3.3937652257
  - # 6
    frequency:    3.9588205726
  - # 7
    frequency:    4.0917198740
  - # 8
    frequency:    4.4408153576
  - # 9
    frequency:    4.9440106603
  - # 10
    frequency:    5.3539261001
  - # 11
    frequency:    6.8290676330
  - # 12
    frequency:    6.9280487061
  - # 13
    frequency:    7.9592185571
  - # 14
    frequency:   11.7652665088
  - # 15
    frequency:   13.9457811510

- q-position: [    0.2300000,    0.0000000,    0.0000000 ]
  distance:    0.0719229
  band:
  - # 1
    frequency:    1.3273490152
  - # 2
    frequency:    1.7152338683
  - # 3
    frequency:    2.7913473995
  - # 4
    frequency:    2.8735074281
  - # 5
    frequency:    3.4464601518
  - # 6
    frequency:    3.9647657951
  - # 7
    frequency:    4.1284114160
  - # 8
    frequency:    4.4474214022
  - # 9
    frequency:    4.9840934523
  - # 10
    frequency:    5.3957717171
  - # 11
    frequency:    6.8018207733
  - # 12
    frequency:    6.8783376203
  - # 13
    frequency:    8.0027453050
  - # 14
    frequency:   12.0211811422
  - # 15
    frequency:   13.8205432561

- q-position: [    0.2400000,    0.0000000,    0.0000000 ]
  distance:    0.0750500
  band:
  - # 1
    frequency:    1.4085303686
  - # 2
    frequency:    1.7767324715
  - # 3
    frequency:    2.8024294547
  - # 4
    frequency:    2.9697254667
  - # 5
    frequency:    3.4988333975
  - # 6
    frequency:    3.9746930977
  - # 7
    frequency:    4.1616576582
  - # 8
    frequency:    4.4542338976
  - # 9
    frequency:    5.0240773572
  - # 10
    frequency:    5.4338083438
  - # 11
    frequency:    6.7754184546
  - # 12
    frequency:    6.8293737365
  - # 13
    frequency:    8.0452691267
  - # 14
    frequency:   12.2547436387
  - # 15
    frequency:   13.7096056287

- q-position: [    0.2500000,    0.0000000,    0.0000000 ]
  distance:    0.0781771
  band:
  - # 1
    frequency:    1.4889915475
  - # 2
    frequency:    1.8368012962
  - # 3
    frequency:    2.8127559047
  - # 4
    frequency:    3.0585412791
  - # 5
    frequency:    3.5502244989
  - # 6
    frequency:    3.9897661169
  - # 7
    frequency:    4.1913816065
  - # 8
    frequency:    4.4613103238
  - # 9
    frequency:    5.0638863122
  - # 10
    frequency:    5.4682586983
  - # 11
    frequency:    6.7499855707
  - # 12
    frequency:    6.7815979758
  - # 13
    frequency:    8.0865636333
  - # 14
    frequency:   12.4515086718
  - # 15
    frequency:   13.6270846677

- q-position: [    0.2600000,    0.0000000,    0.0000000 ]
  distance:    0.0813042
  band:
  - # 1
    frequency:    1.5685328702
  - # 2
    frequency:    1.8953838156
  - # 3
    frequency:    2.8222493544
  - # 4
    frequency:    3.1390245513
  - # 5
    frequency:    3.5995717754
  - # 6
    frequency:    4.0114034164
  - # 7
    frequency:    4.2175487342
  - # 8
    frequency:    4.4687045650
  - # 9
    frequency:    5.1034514500
  - # 10
    frequency:    5.4993334129
  - # 11
    frequency:    6.7247884496
  - # 12
    frequency:    6.7362934737
  - # 13
    frequency:    8.1264268280
  - # 14
    frequency:   12.5872895960
  - # 15
    frequency:   13.5969673811

- q-position: [    0.2700000,    0.0000000,    0.0000000 ]
  distance:    0.0844313
  band:
  - # 1
    frequency:    1.6469739020
  - # 2
    frequency:    1.9524219309
  - # 3
    frequency:    2.8308409500
  - # 4
    frequency:    3.2104765625
  - # 5
    frequency:    3.6454928829
  - # 6
    frequency:    4.0410739099
  - # 7
    frequency:    4.2401765903
  - # 8
    frequency:    4.4764529371
  - # 9
    frequency:    5.1427053013
  - # 10
    frequency:    5.5272449522
  - # 11
    frequency:    6.6881379851
  - # 12
    frequency:    6.7056714882
  - # 13
    frequency:    8.1646829472
  - # 14
    frequency:   12.6380161166
  - # 15
    frequency:   13.6432389001

- q-position: [    0.2800000,    0.0000000,    0.0000000 ]
  distance:    0.0875584
  band:
  - # 1
    frequency:    1.7241540503
  - # 2
    frequency:    2.0078564827
  - # 3
    frequency:    2.8384710492
  - # 4
    frequency:    3.2725219210
  - # 5
    frequency:    3.6866823499
  - # 6
    frequency:    4.0798161620
  - # 7
    frequency:    4.2593461015
  - # 8
    frequency:    4.4845587467
  - # 9
    frequency:    5.1815743811
  - # 10
    frequency:    5.5522240951
  - # 11
    frequency:    6.6456796376
  - # 12
    frequency:    6.6845682618
  - # 13
    frequency:    8.2011836545
  - # 14
    frequency:   12.6075544618
  - # 15
    frequency:   13.7620491532

- q-position: [    0.2900000,    0.0000000,    0.0000000 ]
  distance:    0.0906855
  band:
  - # 1
    frequency:    1.7999330458
  - # 2
    frequency:    2.0616277889
  - # 3
    frequency:    2.8450898791
  - # 4
    frequency:    3.3251147080
  - # 5
    frequency:    3.7225000556
  - # 6
    frequency:    4.1276533912
  - # 7
    frequency:    4.2752096103
  - # 8
    frequency:    4.4929803372
  - # 9
    frequency:    5.2199701642
  - # 10
    frequency:    5.5745381629
  - # 11
    frequency:    6.6048588201
  - # 12
    frequency:    6.6659647589
  - # 13
    frequency:    8.2358085968
  - # 14
    frequency:   12.5244636518
  - # 15
    frequency:   13.9249449622

- q-position: [    0.3000000,    0.0000000,    0.0000000 ]
  distance:    0.0938125
  band:
  - # 1
    frequency:    1.8741912220
  - # 2
    frequency:    2.1136762132
  - # 3
    frequency:    2.8506581673
  - # 4
    frequency:    3.3684670464
  - # 5
    frequency:    3.7532848297
  - # 6
    frequency:    4.1833622872
  - # 7
    frequency:    4.2879901310
  - # 8
    frequency:    4.5016281169
  - # 9
    frequency:    5.2577786648
  - # 10
    frequency:    5.5945095803
  - # 11
    frequency:    6.5662094190
  - # 12
    frequency:    6.6496824933
  - # 13
    frequency:    8.2684653498
  - # 14
    frequency:   12.4136477043
  - # 15
    frequency:   14.1072075401

- q-position: [    0.3100000,    0.0000000,    0.0000000 ]
  distance:    0.0969396
  band:
  - # 1
    frequency:    1.9468295056
  - # 2
    frequency:    2.1639427763
  - # 3
    frequency:    2.8551477144
  - # 4
    frequency:    3.4029563443
  - # 5
    frequency:    3.7801068994
  - # 6
    frequency:    4.2448259662
  - # 7
    frequency:    4.2979691627
  - # 8
    frequency:    4.5103731980
  - # 9
    frequency:    5.2948492464
  - # 10
    frequency:    5.6125324058
  - # 11
    frequency:    6.5298821180
  - # 12
    frequency:    6.6358403296
  - # 13
    frequency:    8.2990887960
  - # 14
    frequency:   12.2891791826
  - # 15
    frequency:   14.2950197979

- q-position: [    0.3200000,    0.0000000,    0.0000000 ]
  distance:    0.1000667
  band:
  - # 1
    frequency:    2.0177690291
  - # 2
    frequency:    2.2123698158
  - # 3
    frequency:    2.8585418704
  - # 4
    frequency:    3.4290628991
  - # 5
    frequency:    3.8042336590
  - # 6
    frequency:    4.3054655135
  - # 7
    frequency:    4.3096452188
  - # 8
    frequency:    4.5190651597
  - # 9
    frequency:    5.3309841136
  - # 10
    frequency:    5.6290832309
  - # 11
    frequency:    6.4959194467
  - # 12
    frequency:    6.6245673194
  - # 13
    frequency:    8.3276399894
  - # 14
    frequency:   12.1584521564
  - # 15
    frequency:   14.4813052095

- q-position: [    0.3300000,    0.0000000,    0.0000000 ]
  distance:    0.1031938
  band:
  - # 1
    frequency:    2.0869502828
  - # 2
    frequency:    2.2589017070
  - # 3
    frequency:    2.8608358619
  - # 4
    frequency:    3.4473460652
  - # 5
    frequency:    3.8267187873
  - # 6
    frequency:    4.3108113986
  - # 7
    frequency:    4.3755901382
  - # 8
    frequency:    4.5275526422
  - # 9
    frequency:    5.3659314275
  - # 10
    frequency:    5.6447213419
  - # 11
    frequency:    6.4642922696
  - # 12
    frequency:    6.6159588747
  - # 13
    frequency:    8.3541045683
  - # 14
    frequency:   12.0255952174
  - # 15
    frequency:   14.6623074197

- q-position: [    0.3400000,    0.0000000,    0.0000000 ]
  distance:    0.1063209
  band:
  - # 1
    frequency:    2.1543317237
  - # 2
    frequency:    2.3034856493
  - # 3
    frequency:    2.8620369097
  - # 4
    frequency:    3.4584334544
  - # 5
    frequency:    3.8482438891
  - # 6
    frequency:    4.3143320767
  - # 7
    frequency:    4.4407887067
  - # 8
    frequency:    4.5357004888
  - # 9
    frequency:    5.3993873124
  - # 10
    frequency:    5.6600713687
  - # 11
    frequency:    6.4349173303
  - # 12
    frequency:    6.6100581329
  - # 13
    frequency:    8.3784907815
  - # 14
    frequency:   11.8931531938
  - # 15
    frequency:   14.8359017874

- q-position: [    0.3500000,    0.0000000,    0.0000000 ]
  distance:    0.1094480
  band:
  - # 1
    frequency:    2.2198877549
  - # 2
    frequency:    2.3460725205
  - # 3
    frequency:    2.8621640715
  - # 4
    frequency:    3.4629987901
  - # 5
    frequency:    3.8691383757
  - # 6
    frequency:    4.3163323307
  - # 7
    frequency:    4.5037509665
  - # 8
    frequency:    4.5434001233
  - # 9
    frequency:    5.4310144476
  - # 10
    frequency:    5.6757805862
  - # 11
    frequency:    6.4076744077
  - # 12
    frequency:    6.6068443559
  - # 13
    frequency:    8.4008271962
  - # 14
    frequency:   11.7628633052
  - # 15
    frequency:   15.0008129561

- q-position: [    0.3600000,    0.0000000,    0.0000000 ]
  distance:    0.1125750
  band:
  - # 1
    frequency:    2.2836059779
  - # 2
    frequency:    2.3866177930
  - # 3
    frequency:    2.8612477430
  - # 4
    frequency:    3.4617260568
  - # 5
    frequency:    3.8894754324
  - # 6
    frequency:    4.3170898171
  - # 7
    frequency:    4.5505731423
  - # 8
    frequency:    4.5633326865
  - # 9
    frequency:    5.4604845043
  - # 10
    frequency:    5.6924453406
  - # 11
    frequency:    6.3824242929
  - # 12
    frequency:    6.6062262761
  - # 13
    frequency:    8.4211601534
  - # 14
    frequency:   11.6360249656
  - # 15
    frequency:   15.1562390803

- q-position: [    0.3700000,    0.0000000,    0.0000000 ]
  distance:    0.1157021
  band:
  - # 1
    frequency:    2.3454835877
  - # 2
    frequency:    2.4250824857
  - # 3
    frequency:    2.8593287702
  - # 4
    frequency:    3.4552734926
  - # 5
    frequency:    3.9091762981
  - # 6
    frequency:    4.3168534573
  - # 7
    frequency:    4.5571699732
  - # 8
    frequency:    4.6186912792
  - # 9
    frequency:    5.4875428437
  - # 10
    frequency:    5.7105118630
  - # 11
    frequency:    6.3590258410
  - # 12
    frequency:    6.6080402413
  - # 13
    frequency:    8.4395510371
  - # 14
    frequency:   11.5136855989
  - # 15
    frequency:   15.3016601627

- q-position: [    0.3800000,    0.0000000,    0.0000000 ]
  distance:    0.1188292
  band:
  - # 1
    frequency:    2.4055227136
  - # 2
    frequency:    2.4614341004
  - # 3
    frequency:    2.8564571531
  - # 4
    frequency:    3.4442502499
  - # 5
    frequency:    3.9280913330
  - # 6
    frequency:    4.3158447014
  - # 7
    frequency:    4.5631657922
  - # 8
    frequency:    4.6692501159
  - # 9
    frequency:    5.5120744333
  - # 10
    frequency:    5.7301777286
  - # 11
    frequency:    6.3373502214
  - # 12
    frequency:    6.6120527840
  - # 13
    frequency:    8.4560734203
  - # 14
    frequency:   11.3967389453
  - # 15
    frequency:   15.4367338330

- q-position: [    0.3900000,    0.0000000,    0.0000000 ]
  distance:    0.1219563
  band:
  - # 1
    frequency:    2.4637243801
  - # 2
    frequency:    2.4956474418
  - # 3
    frequency:    2.8526903842
  - # 4
    frequency:    3.4292095026
  - # 5
    frequency:    3.9460512568
  - # 6
    frequency:    4.3142599823
  - # 7
    frequency:    4.5685554245
  - # 8
    frequency:    4.7146706763
  - # 9
    frequency:    5.5341332091
  - # 10
    frequency:    5.7513376023
  - # 11
    frequency:    6.3172912694
  - # 12
    frequency:    6.6179668109
  - # 13
    frequency:    8.4708101463
  - # 14
    frequency:   11.2859791951
  - # 15
    frequency:   15.5612350212

- q-position: [    0.4000000,    0.0000000,    0.0000000 ]
  distance:    0.1250834
  band:
  - # 1
    frequency:    2.5200805133
  - # 2
    frequency:    2.5277051332
  - # 3
    frequency:    2.8480915678
  - # 4
    frequency:    3.4106549418
  - # 5
    frequency:    3.9628942235
  - # 6
    frequency:    4.3122733379
  - # 7
    frequency:    4.5733482823
  - # 8
    frequency:    4.7548265559
  - # 9
    frequency:    5.5539085400
  - # 10
    frequency:    5.7736048574
  - # 11
    frequency:    6.2987718005
  - # 12
    frequency:    6.6254305022
  - # 13
    frequency:    8.4838504036
  - # 14
    frequency:   11.1821313659
  - # 15
    frequency:   15.6750188884

- q-position: [    0.4100000,    0.0000000,    0.0000000 ]
  distance:    0.1282105
  band:
  - # 1
    frequency:    2.5575974932
  - # 2
    frequency:    2.5745629601
  - # 3
    frequency:    2.8427276434
  - # 4
    frequency:    3.3890561173
  - # 5
    frequency:    3.9784773631
  - # 6
    frequency:    4.3100387180
  - # 7
    frequency:    4.5775638613
  - # 8
    frequency:    4.7897735005
  - # 9
    frequency:    5.5716431887
  - # 10
    frequency:    5.7963978063
  - # 11
    frequency:    6.2817464827
  - # 12
    frequency:    6.6340482224
  - # 13
    frequency:    8.4952868443
  - # 14
    frequency:   11.0858679947
  - # 15
    frequency:   15.7779967205

- q-position: [    0.4200000,    0.0000000,    0.0000000 ]
  distance:    0.1313376
  band:
  - # 1