45   
5    

1    
  0.0045699484948561   0.0000000000000000   0.0088946934041800
  -0.0438756200   -0.0000073200   -0.0934178000
   0.0076216700    0.0026373900   -0.0066415100
   0.0142774400    0.0031267700   -0.0100171900
   0.0002744800   -0.0102867200   -0.0104527400
   0.0018839200    0.0016032600   -0.0062028000
   0.0009403200    0.0000084900   -0.0030405000
  -0.0031006400   -0.0039754900   -0.0087607500
   0.0009348900    0.0000038600   -0.0030262700
   0.0052552300    0.0069360800   -0.0078938800
  -0.0078998000    0.0023212900    0.0088418500
   0.0122291800    0.0093017800    0.0192632400
   0.0014465500    0.0003818000   -0.0003186700
  -0.0004540400   -0.0010997000   -0.0004926300
   0.0001472600    0.0041119500    0.0015188100
   0.0002197700    0.0007067100   -0.0001414500
  -0.0038796500   -0.0116208000    0.0140375500
   0.0075257200   -0.0042681400    0.0033761300
   0.0003792100    0.0001307000   -0.0003177400
   0.0005058100   -0.0000009600    0.0000925700
  -0.0008085700   -0.0003190500   -0.0005271600
   0.0000947300   -0.0000543700   -0.0001191700
   0.0003802100   -0.0000995100   -0.0001855400
  -0.0003940200   -0.0004966200   -0.0004598900
  -0.0001784000    0.0000000400    0.0001469000
   0.0000400800    0.0007549100   -0.0003896600
  -0.0002556100    0.0000001500    0.0004798000
   0.0001691100    0.0002146100   -0.0002559300
   0.0101542900   -0.0052849200    0.0197155200
  -0.0028411400   -0.0022089900    0.0092064500
  -0.0015473500    0.0000386600    0.0016856400
  -0.0002948400    0.0007231400    0.0018635200
   0.0002345300    0.0007527600    0.0018683300
  -0.0002264600   -0.0007627500    0.0015077600
   0.0009930100    0.0075486000    0.0145100700
   0.0002255700    0.0000054200    0.0018540300
  -0.0010773100   -0.0007570800    0.0018844800
   0.0022153400   -0.0017541400    0.0143850500
   0.0013664200    0.0022392400    0.0106085900
  -0.0043286600   -0.0010508300    0.0023292900
  -0.0005666000    0.0009489800    0.0028859200
   0.0052490300   -0.0005465900    0.0124643300
  -0.0022746800   -0.0019417400    0.0013475100
   0.0010824800    0.0009823800    0.0021199000
  -0.0000072700    0.0024952300    0.0024729100
  -0.0018355800   -0.0014384900    0.0021951200

1    
 -0.0045699484948561   0.0000000000000000  -0.0088946934041800
   0.0437241100   -0.0000120100    0.0926994100
  -0.0076453400   -0.0026354800    0.0066922200
  -0.0143588700   -0.0031339800    0.0101844800
  -0.0002352700    0.0103033500    0.0106032600
  -0.0019341900   -0.0016439600    0.0062791500
  -0.0009355600    0.0000080700    0.0031242300
   0.0030727400    0.0040523300    0.0088561200
  -0.0009427600    0.0000073500    0.0031386900
  -0.0052466100   -0.0068950700    0.0080237400
   0.0078468000   -0.0023115800   -0.0089287200
  -0.0119973300   -0.0091529000   -0.0190382800
  -0.0014365500   -0.0004026400    0.0002432400
   0.0004624300    0.0010910800    0.0004198900
  -0.0001485600   -0.0041341700   -0.0016105200
  -0.0002290500   -0.0007009000    0.0000678800
   0.0038446700    0.0114557900   -0.0140016200
  -0.0074833700    0.0042221900   -0.0034293400
  -0.0003499900   -0.0001191500    0.0002173100
  -0.0004974700   -0.0000009700   -0.0001840400
   0.0008125300    0.0003267500    0.0004599700
  -0.0000965500    0.0000588800    0.0000475300
  -0.0003831500    0.0001007800    0.0001151200
   0.0004050700    0.0004939400    0.0003931700
   0.0001788300   -0.0000001900   -0.0002249100
  -0.0000421600   -0.0007580700    0.0003213800
   0.0002611300   -0.0000002400   -0.0005546400
  -0.0001621600   -0.0002196300    0.0001874500
  -0.0108177500    0.0057008100   -0.0202590700
   0.0028498300    0.0021992100   -0.0090836100
   0.0015494000   -0.0000407400   -0.0016085100
   0.0002960400   -0.0007227700   -0.0017875100
  -0.0002398400   -0.0007599300   -0.0017978700
   0.0002267900    0.0007630500   -0.0014328100
  -0.0009504200   -0.0078415600   -0.0146186000
  -0.0002329900   -0.0000033200   -0.0017747000
   0.0010846200    0.0007664600   -0.0018196000
  -0.0023020800    0.0016958000   -0.0143482000
  -0.0006172100   -0.0026709200   -0.0099929000
   0.0043272300    0.0010588400   -0.0023428400
   0.0005600600   -0.0009440300   -0.0028988900
  -0.0052411500    0.0009172600   -0.0122019400
   0.0022497200    0.0019132200   -0.0013414200
  -0.0010695300   -0.0009789300   -0.0021171500
   0.0000096600   -0.0024919100   -0.0024791900
   0.0018342500    0.0014398900   -0.0021973800

19   
  0.0045699484948561   0.0000000000000000   0.0088946934041800
   0.0005219900   -0.0000005500    0.0001923300
   0.0000259000   -0.0001034500    0.0000234900
  -0.0007367400   -0.0000651300   -0.0004402500
  -0.0000258200    0.0005285700   -0.0002400100
   0.0002534800    0.0002623100   -0.0001720600
  -0.0002518100    0.0000293900    0.0005855500
   0.0002672100    0.0000627000   -0.0000219600
  -0.0001496800    0.0000219500    0.0002455800
  -0.0002780800   -0.0006305800   -0.0004171200
   0.0140367000   -0.0075284400    0.0176281700
  -0.0066994000   -0.0044403900    0.0110761600
  -0.0015633000   -0.0003933100    0.0015996500
   0.0000793300    0.0009748700    0.0015934800
   0.0002254200   -0.0000328400    0.0017722700
  -0.0006245600   -0.0005721300    0.0016000400
   0.0010095100    0.0120179800    0.0144031800
  -0.0004433200    0.0003799400    0.0021143200
  -0.0003808300   -0.0003797300    0.0014496600
  -0.0156728700   -0.0000764200   -0.0468136900
   0.0027471700   -0.0000252200   -0.0017746100
   0.0013198600    0.0000804700   -0.0010516000
  -0.0000979500   -0.0005023500   -0.0012532400
   0.0006965600    0.0016085600   -0.0015655400
   0.0000446600   -0.0000295800   -0.0004894500
   0.0006068900   -0.0016149600   -0.0016163200
   0.0000447000   -0.0000246400   -0.0004808000
  -0.0000044600    0.0002960200   -0.0012028700
  -0.0000250100   -0.0000128200    0.0000232700
   0.0000092400    0.0000673800    0.0000351200
   0.0001897600    0.0000672500    0.0001605900
   0.0000357800   -0.0000740600    0.0001393400
   0.0000342200   -0.0001110700    0.0000679400
   0.0001201800    0.0000580400    0.0001755100
  -0.0000731500   -0.0000015500    0.0000257900
   0.0000202800    0.0000311500    0.0000151600
   0.0002421000    0.0001366900    0.0001306400
   0.0014311900    0.0013943400    0.0021852700
  -0.0011078900    0.0000881800   -0.0005519000
   0.0004690400    0.0000553700   -0.0008021100
   0.0035357200   -0.0018337900    0.0018610400
  -0.0009733100   -0.0014812100    0.0008269000
   0.0005929400    0.0001165000   -0.0002429900
   0.0003782500    0.0017059800    0.0008166600
   0.0000489100   -0.0002514500   -0.0008063400
   0.0001211900    0.0002020600   -0.0008042500

19   
 -0.0045699484948561   0.0000000000000000  -0.0088946934041800
  -0.0005246700   -0.0000112100   -0.0001379100
  -0.0000217000    0.0000837500    0.0000652700
   0.0007430100    0.0000856500    0.0005351700
   0.0000085400   -0.0005258000    0.0003252200
  -0.0002541100   -0.0002639500    0.0002484500
   0.0002666400   -0.0000058900   -0.0005049900
  -0.0002750900   -0.0000429900    0.0000920100
   0.0001631400   -0.0000058700   -0.0001897700
   0.0002846200    0.0006529600    0.0004955600
  -0.0147004400    0.0079540800   -0.0182956700
   0.0067743000    0.0044522100   -0.0111138400
   0.0015678100    0.0004081200   -0.0016505300
  -0.0000704800   -0.0009560700   -0.0016339700
  -0.0002334800    0.0000361900   -0.0018399100
   0.0006264200    0.0005697100   -0.0016680300
  -0.0009637800   -0.0123567200   -0.0146660600
   0.0004643900   -0.0004024700   -0.0021824800
   0.0003951000    0.0003700200   -0.0015129100
   0.0162746600   -0.0000352300    0.0474994300
  -0.0027245000    0.0000229000    0.0016771900
  -0.0013309800   -0.0000818100    0.0009710900
   0.0000972600    0.0004933000    0.0011722600
  -0.0006983900   -0.0016074000    0.0014762800
  -0.0000411200    0.0000239400    0.0004025300
  -0.0006051800    0.0016034700    0.0015227900
  -0.0000413800    0.0000249600    0.0004020300
   0.0000059200   -0.0002841500    0.0011252500
   0.0000156700    0.0000116800    0.0000578500
  -0.0000159800   -0.0000761000    0.0000481100
  -0.0001917600   -0.0000722000   -0.0000791000
  -0.0000358800    0.0000670000   -0.0000591000
  -0.0000432100    0.0001078800    0.0000090800
  -0.0001187200   -0.0000648600   -0.0000983200
   0.0000705200   -0.0000058500    0.0000530200
  -0.0000270300   -0.0000313800    0.0000673600
  -0.0002452000   -0.0001376700   -0.0000522100
  -0.0014486300   -0.0014019400   -0.0022326200
   0.0011225900   -0.0000772700    0.0005696700
  -0.0004766300   -0.0000576100    0.0008050900
  -0.0035815200    0.0018561500   -0.0019048900
   0.0009741100    0.0014852700   -0.0008302700
  -0.0006207600   -0.0001457100    0.0002538000
  -0.0003921000   -0.0017056500   -0.0008297700
  -0.0000474100    0.0002509700    0.0008039800
  -0.0001245600   -0.0002044400    0.0008038500

37   
  0.0045699484948561   0.0000000000000000   0.0088946934041800
   0.0055703800    0.0002020800    0.0127236500
  -0.0043167600   -0.0003088900    0.0023928200
  -0.0026418900    0.0045614000    0.0118274900
   0.0010656100    0.0017418700    0.0021641000
  -0.0011850500   -0.0018092000    0.0019257100
  -0.0006526400    0.0021264600    0.0028568200
   0.0000979100    0.0005678800    0.0026017000
  -0.0029076900   -0.0022898900    0.0017325100
   0.0052504400   -0.0046816900    0.0123188800
   0.0052493900   -0.0044639700    0.0123487700
  -0.0029242100   -0.0023275100    0.0016359200
   0.0000951600    0.0005713600    0.0025068800
  -0.0006580800    0.0021256200    0.0027657500
  -0.0011949600   -0.0018060100    0.0018214100
   0.0010856700    0.0017516600    0.0020756000
  -0.0020322300    0.0041935800    0.0121950000
  -0.0043387600   -0.0003163300    0.0022945900
   0.0055907200    0.0001989300    0.0126000600
   0.0028872100    0.0022348600    0.0014467000
   0.0004857600    0.0000067800   -0.0008563900
  -0.0025139800    0.0009030400    0.0001114900
   0.0003932400    0.0023817300    0.0007706300
   0.0000972400    0.0002326800   -0.0008375100
   0.0001064700   -0.0002108300   -0.0008776600
   0.0041796000   -0.0021750200    0.0015382500
   0.0000597600   -0.0001857300    0.0000016200
  -0.0009658800   -0.0031124200    0.0007791300
  -0.0009670500   -0.0031093200    0.0008692400
  -0.0000118200   -0.0002242000    0.0001198000
   0.0041141400   -0.0021772700    0.0016120300
   0.0000835900   -0.0002264200   -0.0007760800
   0.0000690400    0.0002039300   -0.0007372400
   0.0003612400    0.0023749500    0.0008674000
  -0.0025338200    0.0008911300    0.0002184700
   0.0004468200   -0.0000223800   -0.0007621000
   0.0028388700    0.0021831700    0.0015102800
  -0.0299657600    0.0000002400   -0.0639358900
   0.0082105000    0.0025185600   -0.0065916500
   0.0082108500    0.0025054900   -0.0065440400
  -0.0017828400   -0.0057671500   -0.0076731600
   0.0025539700    0.0032439100   -0.0054627200
   0.0008508900    0.0000016900   -0.0012148300
  -0.0017938700   -0.0057799700   -0.0077027500
   0.0008578800   -0.0000040900   -0.0012168200
   0.0025749400    0.0032752600   -0.0054438500
