phonopy:
  version: 2.17.1
  frequency_unit_conversion_factor: 15.633302
  symmetry_tolerance: 1.00000e-05
  configuration:
    dim: "3 3 1"
    primitive_axis: "AUTO"
    band: "0 0 0  0.5 0 0  1/3 1/3 0  0 0 0"
    band_labels: "$\\Gamma$ M K $\\Gamma$"
    group_velocity: "TRUE"

physical_unit:
  atomic_mass: "AMU"
  length: "angstrom"
  force_constants: "eV/angstrom^2"

space_group:
  type: "P-3m1"
  number: 164
  Hall_symbol: "-P 3 2\""

primitive_matrix:
- [  1.000000000000000,  0.000000000000000,  0.000000000000000 ]
- [  0.000000000000000,  1.000000000000000,  0.000000000000000 ]
- [  0.000000000000000,  0.000000000000000,  1.000000000000000 ]

supercell_matrix:
- [   3,   0,   0 ]
- [   0,   3,   0 ]
- [   0,   0,   1 ]

primitive_cell:
  lattice:
  - [     3.692578387901257,     0.000000000000000,     0.000000000000000 ] # a
  - [    -1.846289193950629,     3.197866689387877,     0.000000000000000 ] # b
  - [     0.000000000000000,     0.000000000000000,    21.561087177406161 ] # c
  points:
  - symbol: Gd # 1
    coordinates: [  0.666666666666664,  0.333333333333336,  0.935573175246388 ]
    mass: 157.250000
  - symbol: Gd # 2
    coordinates: [  0.333333333333336,  0.666666666666664,  0.064426824753612 ]
    mass: 157.250000
  - symbol: Cl # 3
    coordinates: [  0.666666666666664,  0.333333333333336,  0.147653811378543 ]
    mass: 35.453000
  - symbol: Cl # 4
    coordinates: [  0.333333333333336,  0.666666666666664,  0.852346188621457 ]
    mass: 35.453000
  - symbol: C  # 5
    coordinates: [  0.000000000000000,  0.000000000000000,  0.000000000000000 ]
    mass: 12.010700
  reciprocal_lattice: # without 2pi
  - [     0.270813479079145,     0.156354235046524,     0.000000000000000 ] # a*
  - [     0.000000000000000,     0.312708470093047,     0.000000000000000 ] # b*
  - [     0.000000000000000,     0.000000000000000,     0.046379850504380 ] # c*

unit_cell:
  lattice:
  - [     3.692578387901257,     0.000000000000000,     0.000000000000000 ] # a
  - [    -1.846289193950629,     3.197866689387877,     0.000000000000000 ] # b
  - [     0.000000000000000,     0.000000000000000,    21.561087177406161 ] # c
  points:
  - symbol: Gd # 1
    coordinates: [  0.666666666666664,  0.333333333333336,  0.935573175246388 ]
    mass: 157.250000
    reduced_to: 1
  - symbol: Gd # 2
    coordinates: [  0.333333333333336,  0.666666666666664,  0.064426824753612 ]
    mass: 157.250000
    reduced_to: 2
  - symbol: Cl # 3
    coordinates: [  0.666666666666664,  0.333333333333336,  0.147653811378543 ]
    mass: 35.453000
    reduced_to: 3
  - symbol: Cl # 4
    coordinates: [  0.333333333333336,  0.666666666666664,  0.852346188621457 ]
    mass: 35.453000
    reduced_to: 4
  - symbol: C  # 5
    coordinates: [ -0.000000000000000, -0.000000000000000,  0.000000000000000 ]
    mass: 12.010700
    reduced_to: 5

supercell:
  lattice:
  - [    11.077735163703771,     0.000000000000000,     0.000000000000000 ] # a
  - [    -5.538867581851887,     9.593600068163632,     0.000000000000000 ] # b
  - [     0.000000000000000,     0.000000000000000,    21.561087177406161 ] # c
  points:
  - symbol: Gd # 1
    coordinates: [  0.222222222222221,  0.111111111111112,  0.935573175246388 ]
    mass: 157.250000
    reduced_to: 1
  - symbol: Gd # 2
    coordinates: [  0.555555555555555,  0.111111111111112,  0.935573175246388 ]
    mass: 157.250000
    reduced_to: 1
  - symbol: Gd # 3
    coordinates: [  0.888888888888888,  0.111111111111112,  0.935573175246388 ]
    mass: 157.250000
    reduced_to: 1
  - symbol: Gd # 4
    coordinates: [  0.222222222222221,  0.444444444444445,  0.935573175246388 ]
    mass: 157.250000
    reduced_to: 1
  - symbol: Gd # 5
    coordinates: [  0.555555555555555,  0.444444444444445,  0.935573175246388 ]
    mass: 157.250000
    reduced_to: 1
  - symbol: Gd # 6
    coordinates: [  0.888888888888888,  0.444444444444445,  0.935573175246388 ]
    mass: 157.250000
    reduced_to: 1
  - symbol: Gd # 7
    coordinates: [  0.222222222222221,  0.777777777777779,  0.935573175246388 ]
    mass: 157.250000
    reduced_to: 1
  - symbol: Gd # 8
    coordinates: [  0.555555555555555,  0.777777777777779,  0.935573175246388 ]
    mass: 157.250000
    reduced_to: 1
  - symbol: Gd # 9
    coordinates: [  0.888888888888888,  0.777777777777779,  0.935573175246388 ]
    mass: 157.250000
    reduced_to: 1
  - symbol: Gd # 10
    coordinates: [  0.111111111111112,  0.222222222222221,  0.064426824753612 ]
    mass: 157.250000
    reduced_to: 10
  - symbol: Gd # 11
    coordinates: [  0.444444444444445,  0.222222222222221,  0.064426824753612 ]
    mass: 157.250000
    reduced_to: 10
  - symbol: Gd # 12
    coordinates: [  0.777777777777779,  0.222222222222221,  0.064426824753612 ]
    mass: 157.250000
    reduced_to: 10
  - symbol: Gd # 13
    coordinates: [  0.111111111111112,  0.555555555555555,  0.064426824753612 ]
    mass: 157.250000
    reduced_to: 10
  - symbol: Gd # 14
    coordinates: [  0.444444444444445,  0.555555555555555,  0.064426824753612 ]
    mass: 157.250000
    reduced_to: 10
  - symbol: Gd # 15
    coordinates: [  0.777777777777779,  0.555555555555555,  0.064426824753612 ]
    mass: 157.250000
    reduced_to: 10
  - symbol: Gd # 16
    coordinates: [  0.111111111111112,  0.888888888888888,  0.064426824753612 ]
    mass: 157.250000
    reduced_to: 10
  - symbol: Gd # 17
    coordinates: [  0.444444444444445,  0.888888888888888,  0.064426824753612 ]
    mass: 157.250000
    reduced_to: 10
  - symbol: Gd # 18
    coordinates: [  0.777777777777779,  0.888888888888888,  0.064426824753612 ]
    mass: 157.250000
    reduced_to: 10
  - symbol: Cl # 19
    coordinates: [  0.222222222222221,  0.111111111111112,  0.147653811378543 ]
    mass: 35.453000
    reduced_to: 19
  - symbol: Cl # 20
    coordinates: [  0.555555555555555,  0.111111111111112,  0.147653811378543 ]
    mass: 35.453000
    reduced_to: 19
  - symbol: Cl # 21
    coordinates: [  0.888888888888888,  0.111111111111112,  0.147653811378543 ]
    mass: 35.453000
    reduced_to: 19
  - symbol: Cl # 22
    coordinates: [  0.222222222222221,  0.444444444444445,  0.147653811378543 ]
    mass: 35.453000
    reduced_to: 19
  - symbol: Cl # 23
    coordinates: [  0.555555555555555,  0.444444444444445,  0.147653811378543 ]
    mass: 35.453000
    reduced_to: 19
  - symbol: Cl # 24
    coordinates: [  0.888888888888888,  0.444444444444445,  0.147653811378543 ]
    mass: 35.453000
    reduced_to: 19
  - symbol: Cl # 25
    coordinates: [  0.222222222222221,  0.777777777777779,  0.147653811378543 ]
    mass: 35.453000
    reduced_to: 19
  - symbol: Cl # 26
    coordinates: [  0.555555555555555,  0.777777777777779,  0.147653811378543 ]
    mass: 35.453000
    reduced_to: 19
  - symbol: Cl # 27
    coordinates: [  0.888888888888888,  0.777777777777779,  0.147653811378543 ]
    mass: 35.453000
    reduced_to: 19
  - symbol: Cl # 28
    coordinates: [  0.111111111111112,  0.222222222222221,  0.852346188621457 ]
    mass: 35.453000
    reduced_to: 28
  - symbol: Cl # 29
    coordinates: [  0.444444444444445,  0.222222222222221,  0.852346188621457 ]
    mass: 35.453000
    reduced_to: 28
  - symbol: Cl # 30
    coordinates: [  0.777777777777779,  0.222222222222221,  0.852346188621457 ]
    mass: 35.453000
    reduced_to: 28
  - symbol: Cl # 31
    coordinates: [  0.111111111111112,  0.555555555555555,  0.852346188621457 ]
    mass: 35.453000
    reduced_to: 28
  - symbol: Cl # 32
    coordinates: [  0.444444444444445,  0.555555555555555,  0.852346188621457 ]
    mass: 35.453000
    reduced_to: 28
  - symbol: Cl # 33
    coordinates: [  0.777777777777779,  0.555555555555555,  0.852346188621457 ]
    mass: 35.453000
    reduced_to: 28
  - symbol: Cl # 34
    coordinates: [  0.111111111111112,  0.888888888888888,  0.852346188621457 ]
    mass: 35.453000
    reduced_to: 28
  - symbol: Cl # 35
    coordinates: [  0.444444444444445,  0.888888888888888,  0.852346188621457 ]
    mass: 35.453000
    reduced_to: 28
  - symbol: Cl # 36
    coordinates: [  0.777777777777779,  0.888888888888888,  0.852346188621457 ]
    mass: 35.453000
    reduced_to: 28
  - symbol: C  # 37
    coordinates: [  0.000000000000000,  0.000000000000000,  0.000000000000000 ]
    mass: 12.010700
    reduced_to: 37
  - symbol: C  # 38
    coordinates: [  0.333333333333333,  0.000000000000000,  0.000000000000000 ]
    mass: 12.010700
    reduced_to: 37
  - symbol: C  # 39
    coordinates: [  0.666666666666667,  0.000000000000000,  0.000000000000000 ]
    mass: 12.010700
    reduced_to: 37
  - symbol: C  # 40
    coordinates: [  0.000000000000000,  0.333333333333333,  0.000000000000000 ]
    mass: 12.010700
    reduced_to: 37
  - symbol: C  # 41
    coordinates: [  0.333333333333333,  0.333333333333333,  0.000000000000000 ]
    mass: 12.010700
    reduced_to: 37
  - symbol: C  # 42
    coordinates: [  0.666666666666667,  0.333333333333333,  0.000000000000000 ]
    mass: 12.010700
    reduced_to: 37
  - symbol: C  # 43
    coordinates: [  0.000000000000000,  0.666666666666667,  0.000000000000000 ]
    mass: 12.010700
    reduced_to: 37
  - symbol: C  # 44
    coordinates: [  0.333333333333333,  0.666666666666667,  0.000000000000000 ]
    mass: 12.010700
    reduced_to: 37
  - symbol: C  # 45
    coordinates: [  0.666666666666667,  0.666666666666667,  0.000000000000000 ]
    mass: 12.010700
    reduced_to: 37
