
     Program PWSCF v.6.4.1 starts on 13Nov2019 at 20:32:33 

     This program is part of the open-source Quantum ESPRESSO suite
     for quantum simulation of materials; please cite
         "P. Giannozzi et al., J. Phys.:Condens. Matter 21 395502 (2009);
         "P. Giannozzi et al., J. Phys.:Condens. Matter 29 465901 (2017);
          URL http://www.quantum-espresso.org", 
     in publications or presentations arising from this work. More details at
     http://www.quantum-espresso.org/quote

     Parallel version (MPI), running on    64 processors

     MPI processes distributed on     2 nodes
     K-points division:     npool     =       8
     R & G space division:  proc/nbgrp/npool/nimage =       8
     Waiting for input...
     Reading input from standard input

     Current dimensions of program PWSCF are:
     Max number of different atomic species (ntypx) = 10
     Max number of k-points (npk) =  40000
     Max angular momentum in pseudopotentials (lmaxx) =  3

     Atomic positions and unit cell read from directory:
     ./tmp/ZrN.save/
 
               file Zr.pbe-mt_fhi.UPF: wavefunction(s)  4f renormalized
               file N.pbe-mt_fhi.UPF: wavefunction(s)  4f renormalized

     Subspace diagonalization in iterative solution of the eigenvalue problem:
     one sub-group per band group will be used
     scalapack distributed-memory algorithm (size of sub-group:  2*  2 procs)

 
     Parallelization info
     --------------------
     sticks:   dense  smooth     PW     G-vecs:    dense   smooth      PW
     Min          70      70     24                 6328     6328    1316
     Max          71      71     25                 6341     6341    1331
     Sum         561     561    193                50655    50655   10567
 


     bravais-lattice index     =            6
     lattice parameter (alat)  =       5.9540  a.u.
     unit-cell volume          =    1060.8038 (a.u.)^3
     number of atoms/cell      =            4
     number of atomic types    =            2
     number of electrons       =        18.00
     number of Kohn-Sham states=           24
     kinetic-energy cutoff     =      50.0000  Ry
     charge density cutoff     =     200.0000  Ry
     Exchange-correlation      = PBE ( 1  4  3  4 0 0)

     celldm(1)=   5.954042  celldm(2)=   0.000000  celldm(3)=   5.025732
     celldm(4)=   0.000000  celldm(5)=   0.000000  celldm(6)=   0.000000

     crystal axes: (cart. coord. in units of alat)
               a(1) = (   1.000000   0.000000   0.000000 )  
               a(2) = (   0.000000   1.000000   0.000000 )  
               a(3) = (   0.000000   0.000000   5.025732 )  

     reciprocal axes: (cart. coord. in units 2 pi/alat)
               b(1) = (  1.000000  0.000000  0.000000 )  
               b(2) = (  0.000000  1.000000  0.000000 )  
               b(3) = (  0.000000  0.000000  0.198976 )  


     PseudoPot. # 1 for Zr read from file:
     /public1/home/sc40125/pseudo/pbe/Zr.pbe-mt_fhi.UPF
     MD5 check sum: c4386e95b382de2b39753e4addfc8b7e
     Pseudo is Norm-conserving, Zval =  4.0
     Generated using FHI98PP, converted with fhi2upf.x v.5.0.2
     Using radial grid of  539 points,  3 beta functions with: 
                l(1) =   0
                l(2) =   2
                l(3) =   3

     PseudoPot. # 2 for N  read from file:
     /public1/home/sc40125/pseudo/pbe/N.pbe-mt_fhi.UPF
     MD5 check sum: e15e723d2596c7aaeca87f2bd8795892
     Pseudo is Norm-conserving, Zval =  5.0
     Generated using FHI98PP, converted with fhi2upf.x v.5.0.2
     Using radial grid of  467 points,  3 beta functions with: 
                l(1) =   0
                l(2) =   1
                l(3) =   3

     atomic species   valence    mass     pseudopotential
        Zr             4.00    91.22400     Zr( 1.00)
        N              5.00    14.00670     N ( 1.00)

      8 Sym. Ops. (no inversion) found


                                    s                        frac. trans.

      isym =  1     identity                                     

 cryst.   s( 1) = (     1          0          0      )
                  (     0          1          0      )
                  (     0          0          1      )

 cart.    s( 1) = (  1.0000000  0.0000000  0.0000000 )
                  (  0.0000000  1.0000000  0.0000000 )
                  (  0.0000000  0.0000000  1.0000000 )


      isym =  2     180 deg rotation - cart. axis [0,0,1]        

 cryst.   s( 2) = (    -1          0          0      )
                  (     0         -1          0      )
                  (     0          0          1      )

 cart.    s( 2) = ( -1.0000000  0.0000000  0.0000000 )
                  (  0.0000000 -1.0000000  0.0000000 )
                  (  0.0000000  0.0000000  1.0000000 )


      isym =  3      90 deg rotation - cart. axis [0,0,-1]       

 cryst.   s( 3) = (     0         -1          0      )
                  (     1          0          0      )
                  (     0          0          1      )

 cart.    s( 3) = (  0.0000000  1.0000000  0.0000000 )
                  ( -1.0000000  0.0000000  0.0000000 )
                  (  0.0000000  0.0000000  1.0000000 )


      isym =  4      90 deg rotation - cart. axis [0,0,1]        

 cryst.   s( 4) = (     0          1          0      )
                  (    -1          0          0      )
                  (     0          0          1      )

 cart.    s( 4) = (  0.0000000 -1.0000000  0.0000000 )
                  (  1.0000000  0.0000000  0.0000000 )
                  (  0.0000000  0.0000000  1.0000000 )


      isym =  5     inv. 180 deg rotation - cart. axis [0,1,0]   

 cryst.   s( 5) = (     1          0          0      )
                  (     0         -1          0      )
                  (     0          0          1      )

 cart.    s( 5) = (  1.0000000  0.0000000  0.0000000 )
                  (  0.0000000 -1.0000000  0.0000000 )
                  (  0.0000000  0.0000000  1.0000000 )


      isym =  6     inv. 180 deg rotation - cart. axis [1,0,0]   

 cryst.   s( 6) = (    -1          0          0      )
                  (     0          1          0      )
                  (     0          0          1      )

 cart.    s( 6) = ( -1.0000000  0.0000000  0.0000000 )
                  (  0.0000000  1.0000000  0.0000000 )
                  (  0.0000000  0.0000000  1.0000000 )


      isym =  7     inv. 180 deg rotation - cart. axis [1,1,0]   

 cryst.   s( 7) = (     0         -1          0      )
                  (    -1          0          0      )
                  (     0          0          1      )

 cart.    s( 7) = (  0.0000000 -1.0000000  0.0000000 )
                  ( -1.0000000  0.0000000  0.0000000 )
                  (  0.0000000  0.0000000  1.0000000 )


      isym =  8     inv. 180 deg rotation - cart. axis [1,-1,0]  

 cryst.   s( 8) = (     0          1          0      )
                  (     1          0          0      )
                  (     0          0          1      )

 cart.    s( 8) = (  0.0000000  1.0000000  0.0000000 )
                  (  1.0000000  0.0000000  0.0000000 )
                  (  0.0000000  0.0000000  1.0000000 )


     point group C_4v (4mm) 
     there are  5 classes
     the character table:

       E     2C4   C2    2s_v  2s_d 
A_1    1.00  1.00  1.00  1.00  1.00
A_2    1.00  1.00  1.00 -1.00 -1.00
B_1    1.00 -1.00  1.00  1.00 -1.00
B_2    1.00 -1.00  1.00 -1.00  1.00
E      2.00  0.00 -2.00  0.00  0.00

     the symmetry operations in each class and the name of the first element:

     E        1
          identity                                               
     2C4      3    4
           90 deg rotation - cart. axis [0,0,-1]                 
     C2       2
          180 deg rotation - cart. axis [0,0,1]                  
     2s_v     5    6
          inv. 180 deg rotation - cart. axis [0,1,0]             
     2s_d     7    8
          inv. 180 deg rotation - cart. axis [1,1,0]             

   Cartesian axes

     site n.     atom                  positions (alat units)
         1           Zr  tau(   1) = (   1.0000000   1.0000000   2.1719903  )
         2           Zr  tau(   2) = (   0.5000000   0.5000000   2.8537082  )
         3           N   tau(   3) = (   1.0000000   1.0000000   2.9413595  )
         4           N   tau(   4) = (   0.5000000   0.5000000   2.0844054  )

   Crystallographic axes

     site n.     atom                  positions (cryst. coord.)
         1           Zr  tau(   1) = (  1.0000000  1.0000000  0.4321739  )
         2           Zr  tau(   2) = (  0.5000000  0.5000000  0.5678195  )
         3           N   tau(   3) = (  1.0000000  1.0000000  0.5852600  )
         4           N   tau(   4) = (  0.5000000  0.5000000  0.4147466  )

     number of k points=    81  gaussian smearing, width (Ry)=  0.0100
                       cart. coord. in units 2pi/alat
        k(    1) = (   0.0000000   0.0000000   0.0000000), wk =   0.0246914
        k(    2) = (   0.0000000   0.1111111   0.0000000), wk =   0.0246914
        k(    3) = (   0.0000000   0.2222222   0.0000000), wk =   0.0246914
        k(    4) = (   0.0000000   0.3333333   0.0000000), wk =   0.0246914
        k(    5) = (   0.0000000   0.4444444   0.0000000), wk =   0.0246914
        k(    6) = (   0.0000000   0.5555556   0.0000000), wk =   0.0246914
        k(    7) = (   0.0000000   0.6666667   0.0000000), wk =   0.0246914
        k(    8) = (   0.0000000   0.7777778   0.0000000), wk =   0.0246914
        k(    9) = (   0.0000000   0.8888889   0.0000000), wk =   0.0246914
        k(   10) = (   0.1111111   0.0000000   0.0000000), wk =   0.0246914
        k(   11) = (   0.1111111   0.1111111   0.0000000), wk =   0.0246914
        k(   12) = (   0.1111111   0.2222222   0.0000000), wk =   0.0246914
        k(   13) = (   0.1111111   0.3333333   0.0000000), wk =   0.0246914
        k(   14) = (   0.1111111   0.4444444   0.0000000), wk =   0.0246914
        k(   15) = (   0.1111111   0.5555556   0.0000000), wk =   0.0246914
        k(   16) = (   0.1111111   0.6666667   0.0000000), wk =   0.0246914
        k(   17) = (   0.1111111   0.7777778   0.0000000), wk =   0.0246914
        k(   18) = (   0.1111111   0.8888889   0.0000000), wk =   0.0246914
        k(   19) = (   0.2222222   0.0000000   0.0000000), wk =   0.0246914
        k(   20) = (   0.2222222   0.1111111   0.0000000), wk =   0.0246914
        k(   21) = (   0.2222222   0.2222222   0.0000000), wk =   0.0246914
        k(   22) = (   0.2222222   0.3333333   0.0000000), wk =   0.0246914
        k(   23) = (   0.2222222   0.4444444   0.0000000), wk =   0.0246914
        k(   24) = (   0.2222222   0.5555556   0.0000000), wk =   0.0246914
        k(   25) = (   0.2222222   0.6666667   0.0000000), wk =   0.0246914
        k(   26) = (   0.2222222   0.7777778   0.0000000), wk =   0.0246914
        k(   27) = (   0.2222222   0.8888889   0.0000000), wk =   0.0246914
        k(   28) = (   0.3333333   0.0000000   0.0000000), wk =   0.0246914
        k(   29) = (   0.3333333   0.1111111   0.0000000), wk =   0.0246914
        k(   30) = (   0.3333333   0.2222222   0.0000000), wk =   0.0246914
        k(   31) = (   0.3333333   0.3333333   0.0000000), wk =   0.0246914
        k(   32) = (   0.3333333   0.4444444   0.0000000), wk =   0.0246914
        k(   33) = (   0.3333333   0.5555556   0.0000000), wk =   0.0246914
        k(   34) = (   0.3333333   0.6666667   0.0000000), wk =   0.0246914
        k(   35) = (   0.3333333   0.7777778   0.0000000), wk =   0.0246914
        k(   36) = (   0.3333333   0.8888889   0.0000000), wk =   0.0246914
        k(   37) = (   0.4444444   0.0000000   0.0000000), wk =   0.0246914
        k(   38) = (   0.4444444   0.1111111   0.0000000), wk =   0.0246914
        k(   39) = (   0.4444444   0.2222222   0.0000000), wk =   0.0246914
        k(   40) = (   0.4444444   0.3333333   0.0000000), wk =   0.0246914
        k(   41) = (   0.4444444   0.4444444   0.0000000), wk =   0.0246914
        k(   42) = (   0.4444444   0.5555556   0.0000000), wk =   0.0246914
        k(   43) = (   0.4444444   0.6666667   0.0000000), wk =   0.0246914
        k(   44) = (   0.4444444   0.7777778   0.0000000), wk =   0.0246914
        k(   45) = (   0.4444444   0.8888889   0.0000000), wk =   0.0246914
        k(   46) = (   0.5555556   0.0000000   0.0000000), wk =   0.0246914
        k(   47) = (   0.5555556   0.1111111   0.0000000), wk =   0.0246914
        k(   48) = (   0.5555556   0.2222222   0.0000000), wk =   0.0246914
        k(   49) = (   0.5555556   0.3333333   0.0000000), wk =   0.0246914
        k(   50) = (   0.5555556   0.4444444   0.0000000), wk =   0.0246914
        k(   51) = (   0.5555556   0.5555556   0.0000000), wk =   0.0246914
        k(   52) = (   0.5555556   0.6666667   0.0000000), wk =   0.0246914
        k(   53) = (   0.5555556   0.7777778   0.0000000), wk =   0.0246914
        k(   54) = (   0.5555556   0.8888889   0.0000000), wk =   0.0246914
        k(   55) = (   0.6666667   0.0000000   0.0000000), wk =   0.0246914
        k(   56) = (   0.6666667   0.1111111   0.0000000), wk =   0.0246914
        k(   57) = (   0.6666667   0.2222222   0.0000000), wk =   0.0246914
        k(   58) = (   0.6666667   0.3333333   0.0000000), wk =   0.0246914
        k(   59) = (   0.6666667   0.4444444   0.0000000), wk =   0.0246914
        k(   60) = (   0.6666667   0.5555556   0.0000000), wk =   0.0246914
        k(   61) = (   0.6666667   0.6666667   0.0000000), wk =   0.0246914
        k(   62) = (   0.6666667   0.7777778   0.0000000), wk =   0.0246914
        k(   63) = (   0.6666667   0.8888889   0.0000000), wk =   0.0246914
        k(   64) = (   0.7777778   0.0000000   0.0000000), wk =   0.0246914
        k(   65) = (   0.7777778   0.1111111   0.0000000), wk =   0.0246914
        k(   66) = (   0.7777778   0.2222222   0.0000000), wk =   0.0246914
        k(   67) = (   0.7777778   0.3333333   0.0000000), wk =   0.0246914
        k(   68) = (   0.7777778   0.4444444   0.0000000), wk =   0.0246914
        k(   69) = (   0.7777778   0.5555556   0.0000000), wk =   0.0246914
        k(   70) = (   0.7777778   0.6666667   0.0000000), wk =   0.0246914
        k(   71) = (   0.7777778   0.7777778   0.0000000), wk =   0.0246914
        k(   72) = (   0.7777778   0.8888889   0.0000000), wk =   0.0246914
        k(   73) = (   0.8888889   0.0000000   0.0000000), wk =   0.0246914
        k(   74) = (   0.8888889   0.1111111   0.0000000), wk =   0.0246914
        k(   75) = (   0.8888889   0.2222222   0.0000000), wk =   0.0246914
        k(   76) = (   0.8888889   0.3333333   0.0000000), wk =   0.0246914
        k(   77) = (   0.8888889   0.4444444   0.0000000), wk =   0.0246914
        k(   78) = (   0.8888889   0.5555556   0.0000000), wk =   0.0246914
        k(   79) = (   0.8888889   0.6666667   0.0000000), wk =   0.0246914
        k(   80) = (   0.8888889   0.7777778   0.0000000), wk =   0.0246914
        k(   81) = (   0.8888889   0.8888889   0.0000000), wk =   0.0246914

                       cryst. coord.
        k(    1) = (   0.0000000   0.0000000   0.0000000), wk =   0.0246914
        k(    2) = (   0.0000000   0.1111111   0.0000000), wk =   0.0246914
        k(    3) = (   0.0000000   0.2222222   0.0000000), wk =   0.0246914
        k(    4) = (   0.0000000   0.3333333   0.0000000), wk =   0.0246914
        k(    5) = (   0.0000000   0.4444444   0.0000000), wk =   0.0246914
        k(    6) = (   0.0000000   0.5555556   0.0000000), wk =   0.0246914
        k(    7) = (   0.0000000   0.6666667   0.0000000), wk =   0.0246914
        k(    8) = (   0.0000000   0.7777778   0.0000000), wk =   0.0246914
        k(    9) = (   0.0000000   0.8888889   0.0000000), wk =   0.0246914
        k(   10) = (   0.1111111   0.0000000   0.0000000), wk =   0.0246914
        k(   11) = (   0.1111111   0.1111111   0.0000000), wk =   0.0246914
        k(   12) = (   0.1111111   0.2222222   0.0000000), wk =   0.0246914
        k(   13) = (   0.1111111   0.3333333   0.0000000), wk =   0.0246914
        k(   14) = (   0.1111111   0.4444444   0.0000000), wk =   0.0246914
        k(   15) = (   0.1111111   0.5555556   0.0000000), wk =   0.0246914
        k(   16) = (   0.1111111   0.6666667   0.0000000), wk =   0.0246914
        k(   17) = (   0.1111111   0.7777778   0.0000000), wk =   0.0246914
        k(   18) = (   0.1111111   0.8888889   0.0000000), wk =   0.0246914
        k(   19) = (   0.2222222   0.0000000   0.0000000), wk =   0.0246914
        k(   20) = (   0.2222222   0.1111111   0.0000000), wk =   0.0246914
        k(   21) = (   0.2222222   0.2222222   0.0000000), wk =   0.0246914
        k(   22) = (   0.2222222   0.3333333   0.0000000), wk =   0.0246914
        k(   23) = (   0.2222222   0.4444444   0.0000000), wk =   0.0246914
        k(   24) = (   0.2222222   0.5555556   0.0000000), wk =   0.0246914
        k(   25) = (   0.2222222   0.6666667   0.0000000), wk =   0.0246914
        k(   26) = (   0.2222222   0.7777778   0.0000000), wk =   0.0246914
        k(   27) = (   0.2222222   0.8888889   0.0000000), wk =   0.0246914
        k(   28) = (   0.3333333   0.0000000   0.0000000), wk =   0.0246914
        k(   29) = (   0.3333333   0.1111111   0.0000000), wk =   0.0246914
        k(   30) = (   0.3333333   0.2222222   0.0000000), wk =   0.0246914
        k(   31) = (   0.3333333   0.3333333   0.0000000), wk =   0.0246914
        k(   32) = (   0.3333333   0.4444444   0.0000000), wk =   0.0246914
        k(   33) = (   0.3333333   0.5555556   0.0000000), wk =   0.0246914
        k(   34) = (   0.3333333   0.6666667   0.0000000), wk =   0.0246914
        k(   35) = (   0.3333333   0.7777778   0.0000000), wk =   0.0246914
        k(   36) = (   0.3333333   0.8888889   0.0000000), wk =   0.0246914
        k(   37) = (   0.4444444   0.0000000   0.0000000), wk =   0.0246914
        k(   38) = (   0.4444444   0.1111111   0.0000000), wk =   0.0246914
        k(   39) = (   0.4444444   0.2222222   0.0000000), wk =   0.0246914
        k(   40) = (   0.4444444   0.3333333   0.0000000), wk =   0.0246914
        k(   41) = (   0.4444444   0.4444444   0.0000000), wk =   0.0246914
        k(   42) = (   0.4444444   0.5555556   0.0000000), wk =   0.0246914
        k(   43) = (   0.4444444   0.6666667   0.0000000), wk =   0.0246914
        k(   44) = (   0.4444444   0.7777778   0.0000000), wk =   0.0246914
        k(   45) = (   0.4444444   0.8888889   0.0000000), wk =   0.0246914
        k(   46) = (   0.5555556   0.0000000   0.0000000), wk =   0.0246914
        k(   47) = (   0.5555556   0.1111111   0.0000000), wk =   0.0246914
        k(   48) = (   0.5555556   0.2222222   0.0000000), wk =   0.0246914
        k(   49) = (   0.5555556   0.3333333   0.0000000), wk =   0.0246914
        k(   50) = (   0.5555556   0.4444444   0.0000000), wk =   0.0246914
        k(   51) = (   0.5555556   0.5555556   0.0000000), wk =   0.0246914
        k(   52) = (   0.5555556   0.6666667   0.0000000), wk =   0.0246914
        k(   53) = (   0.5555556   0.7777778   0.0000000), wk =   0.0246914
        k(   54) = (   0.5555556   0.8888889   0.0000000), wk =   0.0246914
        k(   55) = (   0.6666667   0.0000000   0.0000000), wk =   0.0246914
        k(   56) = (   0.6666667   0.1111111   0.0000000), wk =   0.0246914
        k(   57) = (   0.6666667   0.2222222   0.0000000), wk =   0.0246914
        k(   58) = (   0.6666667   0.3333333   0.0000000), wk =   0.0246914
        k(   59) = (   0.6666667   0.4444444   0.0000000), wk =   0.0246914
        k(   60) = (   0.6666667   0.5555556   0.0000000), wk =   0.0246914
        k(   61) = (   0.6666667   0.6666667   0.0000000), wk =   0.0246914
        k(   62) = (   0.6666667   0.7777778   0.0000000), wk =   0.0246914
        k(   63) = (   0.6666667   0.8888889   0.0000000), wk =   0.0246914
        k(   64) = (   0.7777778   0.0000000   0.0000000), wk =   0.0246914
        k(   65) = (   0.7777778   0.1111111   0.0000000), wk =   0.0246914
        k(   66) = (   0.7777778   0.2222222   0.0000000), wk =   0.0246914
        k(   67) = (   0.7777778   0.3333333   0.0000000), wk =   0.0246914
        k(   68) = (   0.7777778   0.4444444   0.0000000), wk =   0.0246914
        k(   69) = (   0.7777778   0.5555556   0.0000000), wk =   0.0246914
        k(   70) = (   0.7777778   0.6666667   0.0000000), wk =   0.0246914
        k(   71) = (   0.7777778   0.7777778   0.0000000), wk =   0.0246914
        k(   72) = (   0.7777778   0.8888889   0.0000000), wk =   0.0246914
        k(   73) = (   0.8888889   0.0000000   0.0000000), wk =   0.0246914
        k(   74) = (   0.8888889   0.1111111   0.0000000), wk =   0.0246914
        k(   75) = (   0.8888889   0.2222222   0.0000000), wk =   0.0246914
        k(   76) = (   0.8888889   0.3333333   0.0000000), wk =   0.0246914
        k(   77) = (   0.8888889   0.4444444   0.0000000), wk =   0.0246914
        k(   78) = (   0.8888889   0.5555556   0.0000000), wk =   0.0246914
        k(   79) = (   0.8888889   0.6666667   0.0000000), wk =   0.0246914
        k(   80) = (   0.8888889   0.7777778   0.0000000), wk =   0.0246914
        k(   81) = (   0.8888889   0.8888889   0.0000000), wk =   0.0246914

     Dense  grid:    50655 G-vectors     FFT dimensions: (  27,  27, 135)

     Dynamical RAM for                 wfc:       0.29 MB

     Dynamical RAM for     wfc (w. buffer):       0.29 MB

     Dynamical RAM for           str. fact:       0.19 MB

     Dynamical RAM for           local pot:       0.00 MB

     Dynamical RAM for          nlocal pot:       0.58 MB

     Dynamical RAM for                qrad:       0.86 MB

     Dynamical RAM for          rho,v,vnew:       0.57 MB

     Dynamical RAM for           G-vectors:       0.41 MB

     Dynamical RAM for          h,s,v(r/c):       0.11 MB

     Dynamical RAM for          <psi|beta>:       0.02 MB

     Dynamical RAM for                 psi:       1.16 MB

     Dynamical RAM for                hpsi:       1.16 MB

     Dynamical RAM for      wfcinit/wfcrot:       1.64 MB

     Estimated static dynamical RAM per process >       3.67 MB

     Estimated max dynamical RAM per process >       6.11 MB

     Estimated total dynamical RAM >     391.20 MB

     The potential is recalculated from file :
     ./tmp/ZrN.save/charge-density

     Starting wfcs are   64 randomized atomic wfcs

     Band Structure Calculation
     Davidson diagonalization with overlap

     Computing kpt #:     1
     total cpu time spent up to now is        1.0 secs

     Computing kpt #:     2
     total cpu time spent up to now is        1.5 secs

     Computing kpt #:     3
     total cpu time spent up to now is        2.0 secs

     Computing kpt #:     4
     total cpu time spent up to now is        2.6 secs

     Computing kpt #:     5
     total cpu time spent up to now is        3.2 secs

     Computing kpt #:     6
     total cpu time spent up to now is        3.8 secs

     Computing kpt #:     7
     total cpu time spent up to now is        4.3 secs

     Computing kpt #:     8
     total cpu time spent up to now is        4.9 secs

     Computing kpt #:     9
     total cpu time spent up to now is        5.3 secs

     Computing kpt #:    10
     total cpu time spent up to now is        5.8 secs

     Computing kpt #:    11
     total cpu time spent up to now is        6.2 secs

     ethr =  5.56E-15,  avg # of iterations = 48.2

     total cpu time spent up to now is        6.2 secs

     End of band structure calculation

          k = 0.0000 0.0000 0.0000 (  6347 PWs)   bands (ev):

   -13.2385 -12.9256  -2.4294  -2.3372  -0.5493  -0.4530  -0.4530  -0.2442
    -0.2442   1.2031   1.9937   2.8436   2.8436   3.6310   4.1870   4.3928
     5.5040   5.8623   6.1155   6.5183   6.5183   6.6884   7.4736   9.4710

     occupation numbers 
     1.0000   1.0000   1.0000   1.0000   1.0000   1.0000   1.0000   1.0000
     1.0000   1.0000   0.4459   0.0000   0.0000   0.0000   0.0000   0.0000
     0.0000   0.0000   0.0000   0.0000   0.0000   0.0000   0.0000   0.0000

          k = 0.0000 0.1111 0.0000 (  6347 PWs)   bands (ev):

   -13.1332 -12.8392  -2.5291  -2.3506  -1.3907  -1.0790  -0.8909  -0.6778
     0.5287   1.8204   2.1228   2.7830   2.9110   3.8385   4.3609   5.0467
     6.0015   6.2123   6.3149   6.5332   6.5432   6.9747   7.6653   9.6189

     occupation numbers 
     1.0000   1.0000   1.0000   1.0000   1.0000   1.0000   1.0000   1.0000
     1.0000   0.9521   0.0699   0.0000   0.0000   0.0000   0.0000   0.0000
     0.0000   0.0000   0.0000   0.0000   0.0000   0.0000   0.0000   0.0000

          k = 0.0000 0.2222 0.0000 (  6363 PWs)   bands (ev):

   -12.8510 -12.6115  -2.9741  -2.6029  -2.2782  -1.8744  -1.6963  -1.5145
     1.5867   2.4528   2.8946   3.0518   3.1894   4.3392   4.8824   5.8133
     6.0109   6.3901   6.8820   7.1684   7.5079   7.9818   8.1134  10.0326

     occupation numbers 
     1.0000   1.0000   1.0000   1.0000   1.0000   1.0000   1.0000   1.0000
     1.0000   0.0000   0.0000   0.0000   0.0000   0.0000   0.0000   0.0000
     0.0000   0.0000   0.0000   0.0000   0.0000   0.0000   0.0000   0.0000

          k = 0.0000 0.3333 0.0000 (  6326 PWs)   bands (ev):

   -12.4935 -12.3374  -3.7189  -3.5356  -2.4090  -2.3522  -2.2456  -2.2348
     2.5850   3.0172   3.6757   3.7472   4.6167   4.9284   5.5303   5.5516
     5.8070   6.4286   7.3279   7.9051   8.3888   8.8151   9.9951  10.3033

     occupation numbers 
     1.0000   1.0000   1.0000   1.0000   1.0000   1.0000   1.0000   1.0000
     0.0000   0.0000   0.0000   0.0000   0.0000   0.0000   0.0000   0.0000
     0.0000   0.0000   0.0000   0.0000   0.0000   0.0000   0.0000   0.0000

          k = 0.0000 0.4444 0.0000 (  6326 PWs)   bands (ev):

   -12.2172 -12.1630  -4.2092  -4.1527  -2.6851  -2.6454  -2.4597  -2.4151
     3.3825   3.6406   4.3040   4.7117   4.7970   4.9756   5.4191   5.9667
     6.7798   6.8305   7.3669   8.5033   8.8760   9.0291   9.3352  10.2505

     occupation numbers 
     1.0000   1.0000   1.0000   1.0000   1.0000   1.0000   1.0000   1.0000
     0.0000   0.0000   0.0000   0.0000   0.0000   0.0000   0.0000   0.0000
     0.0000   0.0000   0.0000   0.0000   0.0000   0.0000   0.0000   0.0000

          k = 0.0000 0.5556 0.0000 (  6326 PWs)   bands (ev):

   -12.2172 -12.1630  -4.2092  -4.1527  -2.6851  -2.6454  -2.4597  -2.4151
     3.3825   3.6406   4.3040   4.7117   4.7970   4.9756   5.4191   5.9667
     6.7798   6.8305   7.3669   8.5033   8.8760   9.0291   9.3352  10.2505

     occupation numbers 
     1.0000   1.0000   1.0000   1.0000   1.0000   1.0000   1.0000   1.0000
     0.0000   0.0000   0.0000   0.0000   0.0000   0.0000   0.0000   0.0000
     0.0000   0.0000   0.0000   0.0000   0.0000   0.0000   0.0000   0.0000

          k = 0.0000 0.6667 0.0000 (  6326 PWs)   bands (ev):

   -12.4935 -12.3374  -3.7189  -3.5356  -2.4090  -2.3522  -2.2456  -2.2348
     2.5850   3.0172   3.6757   3.7472   4.6167   4.9284   5.5303   5.5516
     5.8070   6.4286   7.3279   7.9051   8.3888   8.8151   9.9951  10.3033

     occupation numbers 
     1.0000   1.0000   1.0000   1.0000   1.0000   1.0000   1.0000   1.0000
     0.0000   0.0000   0.0000   0.0000   0.0000   0.0000   0.0000   0.0000
     0.0000   0.0000   0.0000   0.0000   0.0000   0.0000   0.0000   0.0000

          k = 0.0000 0.7778 0.0000 (  6363 PWs)   bands (ev):

   -12.8510 -12.6115  -2.9741  -2.6029  -2.2782  -1.8744  -1.6963  -1.5145
     1.5867   2.4528   2.8946   3.0518   3.1894   4.3392   4.8824   5.8133
     6.0109   6.3901   6.8820   7.1684   7.5079   7.9818   8.1134  10.0326

     occupation numbers 
     1.0000   1.0000   1.0000   1.0000   1.0000   1.0000   1.0000   1.0000
     1.0000   0.0000   0.0000   0.0000   0.0000   0.0000   0.0000   0.0000
     0.0000   0.0000   0.0000   0.0000   0.0000   0.0000   0.0000   0.0000

          k = 0.0000 0.8889 0.0000 (  6347 PWs)   bands (ev):

   -13.1332 -12.8392  -2.5291  -2.3506  -1.3907  -1.0790  -0.8909  -0.6778
     0.5287   1.8204   2.1228   2.7830   2.9110   3.8385   4.3609   5.0467
     6.0015   6.2123   6.3149   6.5332   6.5432   6.9747   7.6653   9.6189

     occupation numbers 
     1.0000   1.0000   1.0000   1.0000   1.0000   1.0000   1.0000   1.0000
     1.0000   0.9521   0.0699   0.0000   0.0000   0.0000   0.0000   0.0000
     0.0000   0.0000   0.0000   0.0000   0.0000   0.0000   0.0000   0.0000

          k = 0.1111 0.0000 0.0000 (  6347 PWs)   bands (ev):

   -13.1332 -12.8392  -2.5291  -2.3506  -1.3907  -1.0790  -0.8909  -0.6778
     0.5287   1.8204   2.1228   2.7830   2.9110   3.8385   4.3609   5.0467
     6.0015   6.2123   6.3149   6.5332   6.5432   6.9747   7.6653   9.6189

     occupation numbers 
     1.0000   1.0000   1.0000   1.0000   1.0000   1.0000   1.0000   1.0000
     1.0000   0.9521   0.0699   0.0000   0.0000   0.0000   0.0000   0.0000
     0.0000   0.0000   0.0000   0.0000   0.0000   0.0000   0.0000   0.0000

          k = 0.1111 0.1111 0.0000 (  6361 PWs)   bands (ev):

   -13.0410 -12.7654  -2.6138  -2.3530  -1.5701  -1.4588  -1.4471  -1.0716
     1.1080   2.2329   2.3768   2.5208   3.2540   4.0859   4.5315   5.2363
     6.0331   6.2941   6.3499   6.5149   6.6805   7.4373   7.9928   9.8444

     occupation numbers 
     1.0000   1.0000   1.0000   1.0000   1.0000   1.0000   1.0000   1.0000
     1.0000   0.0044   0.0000   0.0000   0.0000   0.0000   0.0000   0.0000
     0.0000   0.0000   0.0000   0.0000   0.0000   0.0000   0.0000   0.0000

          k = 0.1111 0.2222 0.0000 (  6350 PWs)   bands (ev):

   -12.7973 -12.5740  -3.0219  -2.6897  -2.1933  -2.1640  -1.7256  -1.5622
     1.5849   2.5877   2.7888   3.4692   3.7439   4.6211   5.0450   5.4186
     5.8105   6.4405   6.6008   7.1933   7.3976   8.3832   8.5654  10.3573

     occupation numbers 
     1.0000   1.0000   1.0000   1.0000   1.0000   1.0000   1.0000   1.0000
     1.0000   0.0000   0.0000   0.0000   0.0000   0.0000   0.0000   0.0000
     0.0000   0.0000   0.0000   0.0000   0.0000   0.0000   0.0000   0.0000

          k = 0.1111 0.3333 0.0000 (  6326 PWs)   bands (ev):

   -12.4953 -12.3509  -3.6287  -3.4767  -2.4985  -2.3614  -2.1114  -2.0075
     1.9002   3.1439   3.9276   4.3672   4.5601   4.8875   5.1354   5.6887
     6.0262   6.5179   7.4834   8.0581   8.3182   8.9888   9.5719  10.5650

     occupation numbers 
     1.0000   1.0000   1.0000   1.0000   1.0000   1.0000   1.0000   1.0000
     0.7986   0.0000   0.0000   0.0000   0.0000   0.0000   0.0000   0.0000
     0.0000   0.0000   0.0000   0.0000   0.0000   0.0000   0.0000   0.0000

          k = 0.1111 0.4444 0.0000 (  6319 PWs)   bands (ev):

   -12.2661 -12.2163  -3.9948  -3.9506  -2.7158  -2.6522  -2.2324  -2.2036
     2.5016   3.3093   4.1135   4.6320   5.2763   5.4890   5.6607   6.0812
     6.9105   7.0437   7.5421   8.6545   8.9774   9.0208   9.2077  10.2861

     occupation numbers 
     1.0000   1.0000   1.0000   1.0000   1.0000   1.0000   1.0000   1.0000
     0.0000   0.0000   0.0000   0.0000   0.0000   0.0000   0.0000   0.0000
     0.0000   0.0000   0.0000   0.0000   0.0000   0.0000   0.0000   0.0000

          k = 0.1111 0.5556 0.0000 (  6319 PWs)   bands (ev):

   -12.2661 -12.2163  -3.9948  -3.9506  -2.7158  -2.6522  -2.2324  -2.2036
     2.5016   3.3093   4.1135   4.6320   5.2763   5.4890   5.6607   6.0812
     6.9105   7.0437   7.5421   8.6545   8.9774   9.0208   9.2077  10.2861

     occupation numbers 
     1.0000   1.0000   1.0000   1.0000   1.0000   1.0000   1.0000   1.0000
     0.0000   0.0000   0.0000   0.0000   0.0000   0.0000   0.0000   0.0000
     0.0000   0.0000   0.0000   0.0000   0.0000   0.0000   0.0000   0.0000

          k = 0.1111 0.6667 0.0000 (  6326 PWs)   bands (ev):

   -12.4953 -12.3509  -3.6287  -3.4767  -2.4985  -2.3614  -2.1114  -2.0075
     1.9002   3.1439   3.9276   4.3672   4.5601   4.8875   5.1354   5.6887
     6.0262   6.5179   7.4834   8.0581   8.3182   8.9888   9.5719  10.5650

     occupation numbers 
     1.0000   1.0000   1.0000   1.0000   1.0000   1.0000   1.0000   1.0000
     0.7986   0.0000   0.0000   0.0000   0.0000   0.0000   0.0000   0.0000
     0.0000   0.0000   0.0000   0.0000   0.0000   0.0000   0.0000   0.0000

          k = 0.1111 0.7778 0.0000 (  6350 PWs)   bands (ev):

   -12.7973 -12.5740  -3.0219  -2.6897  -2.1933  -2.1640  -1.7256  -1.5622
     1.5849   2.5877   2.7888   3.4692   3.7439   4.6211   5.0450   5.4186
     5.8105   6.4405   6.6008   7.1933   7.3976   8.3832   8.5654  10.3573

     occupation numbers 
     1.0000   1.0000   1.0000   1.0000   1.0000   1.0000   1.0000   1.0000
     1.0000   0.0000   0.0000   0.0000   0.0000   0.0000   0.0000   0.0000
     0.0000   0.0000   0.0000   0.0000   0.0000   0.0000   0.0000   0.0000

          k = 0.1111 0.8889 0.0000 (  6361 PWs)   bands (ev):

   -13.0410 -12.7654  -2.6138  -2.3530  -1.5701  -1.4588  -1.4471  -1.0716
     1.1080   2.2329   2.3768   2.5208   3.2540   4.0859   4.5315   5.2363
     6.0331   6.2941   6.3499   6.5149   6.6805   7.4373   7.9928   9.8444

     occupation numbers 
     1.0000   1.0000   1.0000   1.0000   1.0000   1.0000   1.0000   1.0000
     1.0000   0.0044   0.0000   0.0000   0.0000   0.0000   0.0000   0.0000
     0.0000   0.0000   0.0000   0.0000   0.0000   0.0000   0.0000   0.0000

          k = 0.2222 0.0000 0.0000 (  6363 PWs)   bands (ev):

   -12.8510 -12.6115  -2.9741  -2.6029  -2.2782  -1.8744  -1.6963  -1.5145
     1.5867   2.4528   2.8946   3.0518   3.1894   4.3392   4.8824   5.8133
     6.0109   6.3901   6.8820   7.1684   7.5079   7.9818   8.1134  10.0326

     occupation numbers 
     1.0000   1.0000   1.0000   1.0000   1.0000   1.0000   1.0000   1.0000
     1.0000   0.0000   0.0000   0.0000   0.0000   0.0000   0.0000   0.0000
     0.0000   0.0000   0.0000   0.0000   0.0000   0.0000   0.0000   0.0000

          k = 0.2222 0.1111 0.0000 (  6350 PWs)   bands (ev):

   -12.7973 -12.5740  -3.0219  -2.6897  -2.1933  -2.1640  -1.7256  -1.5622
     1.5849   2.5877   2.7888   3.4692   3.7439   4.6211   5.0450   5.4186
     5.8105   6.4405   6.6008   7.1933   7.3976   8.3832   8.5654  10.3573

     occupation numbers 
     1.0000   1.0000   1.0000   1.0000   1.0000   1.0000   1.0000   1.0000
     1.0000   0.0000   0.0000   0.0000   0.0000   0.0000   0.0000   0.0000
     0.0000   0.0000   0.0000   0.0000   0.0000   0.0000   0.0000   0.0000

          k = 0.2222 0.2222 0.0000 (  6335 PWs)   bands (ev):

   -12.6613 -12.4831  -3.2146  -3.0182  -2.3468  -2.0031  -1.9173  -1.6527
     1.1163   2.9690   3.6926   4.3446   4.3949   4.5212   5.1908   5.5429
     5.9983   6.1341   6.5433   7.3211   7.6560   9.0056   9.7361  10.9750

     occupation numbers 
     1.0000   1.0000   1.0000   1.0000   1.0000   1.0000   1.0000   1.0000
     1.0000   0.0000   0.0000   0.0000   0.0000   0.0000   0.0000   0.0000
     0.0000   0.0000   0.0000   0.0000   0.0000   0.0000   0.0000   0.0000

          k = 0.2222 0.3333 0.0000 (  6318 PWs)   bands (ev):

   -12.5038 -12.3905  -3.3810  -3.3257  -2.4467  -2.1476  -1.8416  -1.8306
     0.9519   3.2568   3.7001   4.7977   4.8989   5.3744   5.5823   5.7322
     6.4679   6.7654   7.1545   8.0707   8.4356   9.5917  10.0649  10.9180

     occupation numbers 
     1.0000   1.0000   1.0000   1.0000   1.0000   1.0000   1.0000   1.0000
     1.0000   0.0000   0.0000   0.0000   0.0000   0.0000   0.0000   0.0000
     0.0000   0.0000   0.0000   0.0000   0.0000   0.0000   0.0000   0.0000

          k = 0.2222 0.4444 0.0000 (  6313 PWs)   bands (ev):

   -12.3874 -12.3488  -3.4175  -3.4053  -2.5878  -2.4611  -1.8760  -1.8222
     1.3680   2.2359   4.3012   4.8511   5.5379   5.6387   6.1033   6.5191
     7.3211   7.5895   8.0813   8.8778   8.9558   9.1763   9.4246  10.3612

     occupation numbers 
     1.0000   1.0000   1.0000   1.0000   1.0000   1.0000   1.0000   1.0000
     1.0000   0.0040   0.0000   0.0000   0.0000   0.0000   0.0000   0.0000
     0.0000   0.0000   0.0000   0.0000   0.0000   0.0000   0.0000   0.0000

          k = 0.2222 0.5556 0.0000 (  6313 PWs)   bands (ev):

   -12.3874 -12.3488  -3.4175  -3.4053  -2.5878  -2.4611  -1.8760  -1.8222
     1.3680   2.2359   4.3012   4.8511   5.5379   5.6387   6.1033   6.5191
     7.3211   7.5895   8.0813   8.8778   8.9558   9.1763   9.4246  10.3612

     occupation numbers 
     1.0000   1.0000   1.0000   1.0000   1.0000   1.0000   1.0000   1.0000
     1.0000   0.0040   0.0000   0.0000   0.0000   0.0000   0.0000   0.0000
     0.0000   0.0000   0.0000   0.0000   0.0000   0.0000   0.0000   0.0000

          k = 0.2222 0.6667 0.0000 (  6318 PWs)   bands (ev):

   -12.5038 -12.3905  -3.3810  -3.3257  -2.4467  -2.1476  -1.8416  -1.8306
     0.9519   3.2568   3.7001   4.7977   4.8989   5.3744   5.5823   5.7322
     6.4679   6.7654   7.1545   8.0707   8.4356   9.5917  10.0649  10.9180

     occupation numbers 
     1.0000   1.0000   1.0000   1.0000   1.0000   1.0000   1.0000   1.0000
     1.0000   0.0000   0.0000   0.0000   0.0000   0.0000   0.0000   0.0000
     0.0000   0.0000   0.0000   0.0000   0.0000   0.0000   0.0000   0.0000

          k = 0.2222 0.7778 0.0000 (  6335 PWs)   bands (ev):

   -12.6613 -12.4831  -3.2146  -3.0182  -2.3468  -2.0031  -1.9173  -1.6527
     1.1163   2.9690   3.6926   4.3446   4.3949   4.5212   5.1908   5.5429
     5.9983   6.1341   6.5433   7.3211   7.6560   9.0056   9.7361  10.9750

     occupation numbers 
     1.0000   1.0000   1.0000   1.0000   1.0000   1.0000   1.0000   1.0000
     1.0000   0.0000   0.0000   0.0000   0.0000   0.0000   0.0000   0.0000
     0.0000   0.0000   0.0000   0.0000   0.0000   0.0000   0.0000   0.0000

          k = 0.2222 0.8889 0.0000 (  6350 PWs)   bands (ev):

   -12.7973 -12.5740  -3.0219  -2.6897  -2.1933  -2.1640  -1.7256  -1.5622
     1.5849   2.5877   2.7888   3.4692   3.7439   4.6211   5.0450   5.4186
     5.8105   6.4405   6.6008   7.1933   7.3976   8.3832   8.5654  10.3573

     occupation numbers 
     1.0000   1.0000   1.0000   1.0000   1.0000   1.0000   1.0000   1.0000
     1.0000   0.0000   0.0000   0.0000   0.0000   0.0000   0.0000   0.0000
     0.0000   0.0000   0.0000   0.0000   0.0000   0.0000   0.0000   0.0000

          k = 0.3333 0.0000 0.0000 (  6326 PWs)   bands (ev):

   -12.4935 -12.3374  -3.7189  -3.5356  -2.4090  -2.3522  -2.2456  -2.2348
     2.5850   3.0172   3.6757   3.7472   4.6167   4.9284   5.5303   5.5516
     5.8070   6.4286   7.3279   7.9051   8.3888   8.8151   9.9951  10.3033

     occupation numbers 
     1.0000   1.0000   1.0000   1.0000   1.0000   1.0000   1.0000   1.0000
     0.0000   0.0000   0.0000   0.0000   0.0000   0.0000   0.0000   0.0000
     0.0000   0.0000   0.0000   0.0000   0.0000   0.0000   0.0000   0.0000

          k = 0.3333 0.1111 0.0000 (  6326 PWs)   bands (ev):

   -12.4953 -12.3509  -3.6287  -3.4767  -2.4985  -2.3614  -2.1114  -2.0075
     1.9002   3.1439   3.9276   4.3672   4.5601   4.8875   5.1354   5.6887
     6.0262   6.5179   7.4834   8.0581   8.3182   8.9888   9.5719  10.5650

     occupation numbers 
     1.0000   1.0000   1.0000   1.0000   1.0000   1.0000   1.0000   1.0000
     0.7986   0.0000   0.0000   0.0000   0.0000   0.0000   0.0000   0.0000
     0.0000   0.0000   0.0000   0.0000   0.0000   0.0000   0.0000   0.0000

          k = 0.3333 0.2222 0.0000 (  6318 PWs)   bands (ev):

   -12.5038 -12.3905  -3.3810  -3.3257  -2.4467  -2.1476  -1.8416  -1.8306
     0.9519   3.2568   3.7001   4.7977   4.8989   5.3744   5.5823   5.7322
     6.4679   6.7654   7.1545   8.0707   8.4356   9.5917  10.0649  10.9180

     occupation numbers 
     1.0000   1.0000   1.0000   1.0000   1.0000   1.0000   1.0000   1.0000
     1.0000   0.0000   0.0000   0.0000   0.0000   0.0000   0.0000   0.0000
     0.0000   0.0000   0.0000   0.0000   0.0000   0.0000   0.0000   0.0000

          k = 0.3333 0.3333 0.0000 (  6296 PWs)   bands (ev):

   -12.5172 -12.4463  -3.0808  -3.0181  -2.1942  -1.9740  -1.8769  -1.4768
     0.3305   2.2163   4.1745   5.0519   5.4463   5.8515   5.9048   6.5276
     6.8120   7.1586   7.4812   8.2964   9.1272  10.1160  11.1127  11.1364

     occupation numbers 
     1.0000   1.0000   1.0000   1.0000   1.0000   1.0000   1.0000   1.0000
     1.0000   0.0072   0.0000   0.0000   0.0000   0.0000   0.0000   0.0000
     0.0000   0.0000   0.0000   0.0000   0.0000   0.0000   0.0000   0.0000

          k = 0.3333 0.4444 0.0000 (  6341 PWs)   bands (ev):

   -12.5201 -12.4962  -2.7537  -2.6372  -2.2448  -2.1030  -1.6732  -1.3923
     0.4243   1.1794   4.7122   4.9232   5.4440   5.7909   6.7687   7.0483
     7.7003   8.0104   8.5665   8.6805   9.6726   9.7983   9.9841  10.9268

     occupation numbers 
     1.0000   1.0000   1.0000   1.0000   1.0000   1.0000   1.0000   1.0000
     1.0000   1.0000   0.0000   0.0000   0.0000   0.0000   0.0000   0.0000
     0.0000   0.0000   0.0000   0.0000   0.0000   0.0000   0.0000   0.0000

          k = 0.3333 0.5556 0.0000 (  6341 PWs)   bands (ev):

   -12.5201 -12.4962  -2.7537  -2.6372  -2.2448  -2.1030  -1.6732  -1.3923
     0.4243   1.1794   4.7122   4.9232   5.4440   5.7909   6.7687   7.0483
     7.7003   8.0104   8.5665   8.6805   9.6726   9.7983   9.9841  10.9268

     occupation numbers 
     1.0000   1.0000   1.0000   1.0000   1.0000   1.0000   1.0000   1.0000
     1.0000   1.0000   0.0000   0.0000   0.0000   0.0000   0.0000   0.0000
     0.0000   0.0000   0.0000   0.0000   0.0000   0.0000   0.0000   0.0000

          k = 0.3333 0.6667 0.0000 (  6296 PWs)   bands (ev):

   -12.5172 -12.4463  -3.0808  -3.0181  -2.1942  -1.9740  -1.8769  -1.4768
     0.3305   2.2163   4.1745   5.0519   5.4463   5.8515   5.9048   6.5276
     6.8120   7.1586   7.4812   8.2964   9.1272  10.1160  11.1127  11.1364

     occupation numbers 
     1.0000   1.0000   1.0000   1.0000   1.0000   1.0000   1.0000   1.0000
     1.0000   0.0072   0.0000   0.0000   0.0000   0.0000   0.0000   0.0000
     0.0000   0.0000   0.0000   0.0000   0.0000   0.0000   0.0000   0.0000

          k = 0.3333 0.7778 0.0000 (  6318 PWs)   bands (ev):

   -12.5038 -12.3905  -3.3810  -3.3257  -2.4467  -2.1476  -1.8416  -1.8306
     0.9519   3.2568   3.7001   4.7977   4.8989   5.3744   5.5823   5.7322
     6.4679   6.7654   7.1545   8.0707   8.4356   9.5917  10.0649  10.9180

     occupation numbers 
     1.0000   1.0000   1.0000   1.0000   1.0000   1.0000   1.0000   1.0000
     1.0000   0.0000   0.0000   0.0000   0.0000   0.0000   0.0000   0.0000
     0.0000   0.0000   0.0000   0.0000   0.0000   0.0000   0.0000   0.0000

          k = 0.3333 0.8889 0.0000 (  6326 PWs)   bands (ev):

   -12.4953 -12.3509  -3.6287  -3.4767  -2.4985  -2.3614  -2.1114  -2.0075
     1.9002   3.1439   3.9276   4.3672   4.5601   4.8875   5.1354   5.6887
     6.0262   6.5179   7.4834   8.0581   8.3182   8.9888   9.5719  10.5650

     occupation numbers 
     1.0000   1.0000   1.0000   1.0000   1.0000   1.0000   1.0000   1.0000
     0.7986   0.0000   0.0000   0.0000   0.0000   0.0000   0.0000   0.0000
     0.0000   0.0000   0.0000   0.0000   0.0000   0.0000   0.0000   0.0000

          k = 0.4444 0.0000 0.0000 (  6326 PWs)   bands (ev):

   -12.2172 -12.1630  -4.2092  -4.1527  -2.6851  -2.6454  -2.4597  -2.4151
     3.3825   3.6406   4.3040   4.7117   4.7970   4.9756   5.4191   5.9667
     6.7798   6.8305   7.3669   8.5033   8.8760   9.0291   9.3352  10.2505

     occupation numbers 
     1.0000   1.0000   1.0000   1.0000   1.0000   1.0000   1.0000   1.0000
     0.0000   0.0000   0.0000   0.0000   0.0000   0.0000   0.0000   0.0000
     0.0000   0.0000   0.0000   0.0000   0.0000   0.0000   0.0000   0.0000

          k = 0.4444 0.1111 0.0000 (  6319 PWs)   bands (ev):

   -12.2661 -12.2163  -3.9948  -3.9506  -2.7158  -2.6522  -2.2324  -2.2036
     2.5016   3.3093   4.1135   4.6320   5.2763   5.4890   5.6607   6.0812
     6.9105   7.0437   7.5421   8.6545   8.9774   9.0208   9.2077  10.2861

     occupation numbers 
     1.0000   1.0000   1.0000   1.0000   1.0000   1.0000   1.0000   1.0000
     0.0000   0.0000   0.0000   0.0000   0.0000   0.0000   0.0000   0.0000
     0.0000   0.0000   0.0000   0.0000   0.0000   0.0000   0.0000   0.0000

          k = 0.4444 0.2222 0.0000 (  6313 PWs)   bands (ev):

   -12.3874 -12.3488  -3.4175  -3.4053  -2.5878  -2.4611  -1.8760  -1.8222
     1.3680   2.2359   4.3012   4.8511   5.5379   5.6387   6.1033   6.5191
     7.3211   7.5895   8.0813   8.8778   8.9558   9.1763   9.4246  10.3612

     occupation numbers 
     1.0000   1.0000   1.0000   1.0000   1.0000   1.0000   1.0000   1.0000
     1.0000   0.0040   0.0000   0.0000   0.0000   0.0000   0.0000   0.0000
     0.0000   0.0000   0.0000   0.0000   0.0000   0.0000   0.0000   0.0000

          k = 0.4444 0.3333 0.0000 (  6341 PWs)   bands (ev):

   -12.5201 -12.4962  -2.7537  -2.6372  -2.2448  -2.1030  -1.6732  -1.3923
     0.4243   1.1794   4.7122   4.9232   5.4440   5.7909   6.7687   7.0483
     7.7003   8.0104   8.5665   8.6805   9.6726   9.7983   9.9841  10.9268

     occupation numbers 
     1.0000   1.0000   1.0000   1.0000   1.0000   1.0000   1.0000   1.0000
     1.0000   1.0000   0.0000   0.0000   0.0000   0.0000   0.0000   0.0000
     0.0000   0.0000   0.0000   0.0000   0.0000   0.0000   0.0000   0.0000

          k = 0.4444 0.4444 0.0000 (  6356 PWs)   bands (ev):

   -12.6012 -12.5931  -2.1850  -2.0670  -1.9088  -1.8820  -1.4737  -1.1251
    -0.1180   0.2814   5.0370   5.1995   5.3721   5.7085   7.3441   7.4543
     7.6442   7.9703   9.4016   9.4704  10.2987  10.5672  10.7702  10.8589

     occupation numbers 
     1.0000   1.0000   1.0000   1.0000   1.0000   1.0000   1.0000   1.0000
     1.0000   1.0000   0.0000   0.0000   0.0000   0.0000   0.0000   0.0000
     0.0000   0.0000   0.0000   0.0000   0.0000   0.0000   0.0000   0.0000

          k = 0.4444 0.5556 0.0000 (  6356 PWs)   bands (ev):

   -12.6012 -12.5931  -2.1850  -2.0670  -1.9088  -1.8820  -1.4737  -1.1251
    -0.1180   0.2814   5.0370   5.1995   5.3721   5.7085   7.3441   7.4543
     7.6442   7.9703   9.4016   9.4704  10.2987  10.5672  10.7702  10.8589

     occupation numbers 
     1.0000   1.0000   1.0000   1.0000   1.0000   1.0000   1.0000   1.0000
     1.0000   1.0000   0.0000   0.0000   0.0000   0.0000   0.0000   0.0000
     0.0000   0.0000   0.0000   0.0000   0.0000   0.0000   0.0000   0.0000

          k = 0.4444 0.6667 0.0000 (  6341 PWs)   bands (ev):

   -12.5201 -12.4962  -2.7537  -2.6372  -2.2448  -2.1030  -1.6732  -1.3923
     0.4243   1.1794   4.7122   4.9232   5.4440   5.7909   6.7687   7.0483
     7.7003   8.0104   8.5665   8.6805   9.6726   9.7983   9.9841  10.9268

     occupation numbers 
     1.0000   1.0000   1.0000   1.0000   1.0000   1.0000   1.0000   1.0000
     1.0000   1.0000   0.0000   0.0000   0.0000   0.0000   0.0000   0.0000
     0.0000   0.0000   0.0000   0.0000   0.0000   0.0000   0.0000   0.0000

          k = 0.4444 0.7778 0.0000 (  6313 PWs)   bands (ev):

   -12.3874 -12.3488  -3.4175  -3.4053  -2.5878  -2.4611  -1.8760  -1.8222
     1.3680   2.2359   4.3012   4.8511   5.5379   5.6387   6.1033   6.5191
     7.3211   7.5895   8.0813   8.8778   8.9558   9.1763   9.4246  10.3612

     occupation numbers 
     1.0000   1.0000   1.0000   1.0000   1.0000   1.0000   1.0000   1.0000
     1.0000   0.0040   0.0000   0.0000   0.0000   0.0000   0.0000   0.0000
     0.0000   0.0000   0.0000   0.0000   0.0000   0.0000   0.0000   0.0000

          k = 0.4444 0.8889 0.0000 (  6319 PWs)   bands (ev):

   -12.2661 -12.2163  -3.9948  -3.9506  -2.7158  -2.6522  -2.2324  -2.2036
     2.5016   3.3093   4.1135   4.6320   5.2763   5.4890   5.6607   6.0812
     6.9105   7.0437   7.5421   8.6545   8.9774   9.0208   9.2077  10.2861

     occupation numbers 
     1.0000   1.0000   1.0000   1.0000   1.0000   1.0000   1.0000   1.0000
     0.0000   0.0000   0.0000   0.0000   0.0000   0.0000   0.0000   0.0000
     0.0000   0.0000   0.0000   0.0000   0.0000   0.0000   0.0000   0.0000

          k = 0.5556 0.0000 0.0000 (  6326 PWs)   bands (ev):

   -12.2172 -12.1630  -4.2092  -4.1527  -2.6851  -2.6454  -2.4597  -2.4151
     3.3825   3.6406   4.3040   4.7117   4.7970   4.9756   5.4191   5.9667
     6.7798   6.8305   7.3669   8.5033   8.8760   9.0291   9.3352  10.2505

     occupation numbers 
     1.0000   1.0000   1.0000   1.0000   1.0000   1.0000   1.0000   1.0000
     0.0000   0.0000   0.0000   0.0000   0.0000   0.0000   0.0000   0.0000
     0.0000   0.0000   0.0000   0.0000   0.0000   0.0000   0.0000   0.0000

          k = 0.5556 0.1111 0.0000 (  6319 PWs)   bands (ev):

   -12.2661 -12.2163  -3.9948  -3.9506  -2.7158  -2.6522  -2.2324  -2.2036
     2.5016   3.3093   4.1135   4.6320   5.2763   5.4890   5.6607   6.0812
     6.9105   7.0437   7.5421   8.6545   8.9774   9.0208   9.2077  10.2861

     occupation numbers 
     1.0000   1.0000   1.0000   1.0000   1.0000   1.0000   1.0000   1.0000
     0.0000   0.0000   0.0000   0.0000   0.0000   0.0000   0.0000   0.0000
     0.0000   0.0000   0.0000   0.0000   0.0000   0.0000   0.0000   0.0000

          k = 0.5556 0.2222 0.0000 (  6313 PWs)   bands (ev):

   -12.3874 -12.3488  -3.4175  -3.4053  -2.5878  -2.4611  -1.8760  -1.8222
     1.3680   2.2359   4.3012   4.8511   5.5379   5.6387   6.1033   6.5191
     7.3211   7.5895   8.0813   8.8778   8.9558   9.1763   9.4246  10.3612

     occupation numbers 
     1.0000   1.0000   1.0000   1.0000   1.0000   1.0000   1.0000   1.0000
     1.0000   0.0040   0.0000   0.0000   0.0000   0.0000   0.0000   0.0000
     0.0000   0.0000   0.0000   0.0000   0.0000   0.0000   0.0000   0.0000

          k = 0.5556 0.3333 0.0000 (  6341 PWs)   bands (ev):

   -12.5201 -12.4962  -2.7537  -2.6372  -2.2448  -2.1030  -1.6732  -1.3923
     0.4243   1.1794   4.7122   4.9232   5.4440   5.7909   6.7687   7.0483
     7.7003   8.0104   8.5665   8.6805   9.6726   9.7983   9.9841  10.9268

     occupation numbers 
     1.0000   1.0000   1.0000   1.0000   1.0000   1.0000   1.0000   1.0000
     1.0000   1.0000   0.0000   0.0000   0.0000   0.0000   0.0000   0.0000
     0.0000   0.0000   0.0000   0.0000   0.0000   0.0000   0.0000   0.0000

          k = 0.5556 0.4444 0.0000 (  6356 PWs)   bands (ev):

   -12.6012 -12.5931  -2.1850  -2.0670  -1.9088  -1.8820  -1.4737  -1.1251
    -0.1180   0.2814   5.0370   5.1995   5.3721   5.7085   7.3441   7.4543
     7.6442   7.9703   9.4016   9.4704  10.2987  10.5672  10.7702  10.8589

     occupation numbers 
     1.0000   1.0000   1.0000   1.0000   1.0000   1.0000   1.0000   1.0000
     1.0000   1.0000   0.0000   0.0000   0.0000   0.0000   0.0000   0.0000
     0.0000   0.0000   0.0000   0.0000   0.0000   0.0000   0.0000   0.0000

          k = 0.5556 0.5556 0.0000 (  6356 PWs)   bands (ev):

   -12.6012 -12.5931  -2.1850  -2.0670  -1.9088  -1.8820  -1.4737  -1.1251
    -0.1180   0.2814   5.0370   5.1995   5.3721   5.7085   7.3441   7.4543
     7.6442   7.9703   9.4016   9.4704  10.2987  10.5672  10.7702  10.8589

     occupation numbers 
     1.0000   1.0000   1.0000   1.0000   1.0000   1.0000   1.0000   1.0000
     1.0000   1.0000   0.0000   0.0000   0.0000   0.0000   0.0000   0.0000
     0.0000   0.0000   0.0000   0.0000   0.0000   0.0000   0.0000   0.0000

          k = 0.5556 0.6667 0.0000 (  6341 PWs)   bands (ev):

   -12.5201 -12.4962  -2.7537  -2.6372  -2.2448  -2.1030  -1.6732  -1.3923
     0.4243   1.1794   4.7122   4.9232   5.4440   5.7909   6.7687   7.0483
     7.7003   8.0104   8.5665   8.6805   9.6726   9.7983   9.9841  10.9268

     occupation numbers 
     1.0000   1.0000   1.0000   1.0000   1.0000   1.0000   1.0000   1.0000
     1.0000   1.0000   0.0000   0.0000   0.0000   0.0000   0.0000   0.0000
     0.0000   0.0000   0.0000   0.0000   0.0000   0.0000   0.0000   0.0000

          k = 0.5556 0.7778 0.0000 (  6313 PWs)   bands (ev):

   -12.3874 -12.3488  -3.4175  -3.4053  -2.5878  -2.4611  -1.8760  -1.8222
     1.3680   2.2359   4.3012   4.8511   5.5379   5.6387   6.1033   6.5191
     7.3211   7.5895   8.0813   8.8778   8.9558   9.1763   9.4246  10.3612

     occupation numbers 
     1.0000   1.0000   1.0000   1.0000   1.0000   1.0000   1.0000   1.0000
     1.0000   0.0040   0.0000   0.0000   0.0000   0.0000   0.0000   0.0000
     0.0000   0.0000   0.0000   0.0000   0.0000   0.0000   0.0000   0.0000

          k = 0.5556 0.8889 0.0000 (  6319 PWs)   bands (ev):

   -12.2661 -12.2163  -3.9948  -3.9506  -2.7158  -2.6522  -2.2324  -2.2036
     2.5016   3.3093   4.1135   4.6320   5.2763   5.4890   5.6607   6.0812
     6.9105   7.0437   7.5421   8.6545   8.9774   9.0208   9.2077  10.2861

     occupation numbers 
     1.0000   1.0000   1.0000   1.0000   1.0000   1.0000   1.0000   1.0000
     0.0000   0.0000   0.0000   0.0000   0.0000   0.0000   0.0000   0.0000
     0.0000   0.0000   0.0000   0.0000   0.0000   0.0000   0.0000   0.0000

          k = 0.6667 0.0000 0.0000 (  6326 PWs)   bands (ev):

   -12.4935 -12.3374  -3.7189  -3.5356  -2.4090  -2.3522  -2.2456  -2.2348
     2.5850   3.0172   3.6757   3.7472   4.6167   4.9284   5.5303   5.5516
     5.8070   6.4286   7.3279   7.9051   8.3888   8.8151   9.9951  10.3033

     occupation numbers 
     1.0000   1.0000   1.0000   1.0000   1.0000   1.0000   1.0000   1.0000
     0.0000   0.0000   0.0000   0.0000   0.0000   0.0000   0.0000   0.0000
     0.0000   0.0000   0.0000   0.0000   0.0000   0.0000   0.0000   0.0000

          k = 0.6667 0.1111 0.0000 (  6326 PWs)   bands (ev):

   -12.4953 -12.3509  -3.6287  -3.4767  -2.4985  -2.3614  -2.1114  -2.0075
     1.9002   3.1439   3.9276   4.3672   4.5601   4.8875   5.1354   5.6887
     6.0262   6.5179   7.4834   8.0581   8.3182   8.9888   9.5719  10.5650

     occupation numbers 
     1.0000   1.0000   1.0000   1.0000   1.0000   1.0000   1.0000   1.0000
     0.7986   0.0000   0.0000   0.0000   0.0000   0.0000   0.0000   0.0000
     0.0000   0.0000   0.0000   0.0000   0.0000   0.0000   0.0000   0.0000

          k = 0.6667 0.2222 0.0000 (  6318 PWs)   bands (ev):

   -12.5038 -12.3905  -3.3810  -3.3257  -2.4467  -2.1476  -1.8416  -1.8306
     0.9519   3.2568   3.7001   4.7977   4.8989   5.3744   5.5823   5.7322
     6.4679   6.7654   7.1545   8.0707   8.4356   9.5917  10.0649  10.9180

     occupation numbers 
     1.0000   1.0000   1.0000   1.0000   1.0000   1.0000   1.0000   1.0000
     1.0000   0.0000   0.0000   0.0000   0.0000   0.0000   0.0000   0.0000
     0.0000   0.0000   0.0000   0.0000   0.0000   0.0000   0.0000   0.0000

          k = 0.6667 0.3333 0.0000 (  6296 PWs)   bands (ev):

   -12.5172 -12.4463  -3.0808  -3.0181  -2.1942  -1.9740  -1.8769  -1.4768
     0.3305   2.2163   4.1745   5.0519   5.4463   5.8515   5.9048   6.5276
     6.8120   7.1586   7.4812   8.2964   9.1272  10.1160  11.1127  11.1364

     occupation numbers 
     1.0000   1.0000   1.0000   1.0000   1.0000   1.0000   1.0000   1.0000
     1.0000   0.0072   0.0000   0.0000   0.0000   0.0000   0.0000   0.0000
     0.0000   0.0000   0.0000   0.0000   0.0000   0.0000   0.0000   0.0000

          k = 0.6667 0.4444 0.0000 (  6341 PWs)   bands (ev):

   -12.5201 -12.4962  -2.7537  -2.6372  -2.2448  -2.1030  -1.6732  -1.3923
     0.4243   1.1794   4.7122   4.9232   5.4440   5.7909   6.7687   7.0483
     7.7003   8.0104   8.5665   8.6805   9.6726   9.7983   9.9841  10.9268

     occupation numbers 
     1.0000   1.0000   1.0000   1.0000   1.0000   1.0000   1.0000   1.0000
     1.0000   1.0000   0.0000   0.0000   0.0000   0.0000   0.0000   0.0000
     0.0000   0.0000   0.0000   0.0000   0.0000   0.0000   0.0000   0.0000

          k = 0.6667 0.5556 0.0000 (  6341 PWs)   bands (ev):

   -12.5201 -12.4962  -2.7537  -2.6372  -2.2448  -2.1030  -1.6732  -1.3923
     0.4243   1.1794   4.7122   4.9232   5.4440   5.7909   6.7687   7.0483
     7.7003   8.0104   8.5665   8.6805   9.6726   9.7983   9.9841  10.9268

     occupation numbers 
     1.0000   1.0000   1.0000   1.0000   1.0000   1.0000   1.0000   1.0000
     1.0000   1.0000   0.0000   0.0000   0.0000   0.0000   0.0000   0.0000
     0.0000   0.0000   0.0000   0.0000   0.0000   0.0000   0.0000   0.0000

          k = 0.6667 0.6667 0.0000 (  6296 PWs)   bands (ev):

   -12.5172 -12.4463  -3.0808  -3.0181  -2.1942  -1.9740  -1.8769  -1.4768
     0.3305   2.2163   4.1745   5.0519   5.4463   5.8515   5.9048   6.5276
     6.8120   7.1586   7.4812   8.2964   9.1272  10.1160  11.1127  11.1364

     occupation numbers 
     1.0000   1.0000   1.0000   1.0000   1.0000   1.0000   1.0000   1.0000
     1.0000   0.0072   0.0000   0.0000   0.0000   0.0000   0.0000   0.0000
     0.0000   0.0000   0.0000   0.0000   0.0000   0.0000   0.0000   0.0000

          k = 0.6667 0.7778 0.0000 (  6318 PWs)   bands (ev):

   -12.5038 -12.3905  -3.3810  -3.3257  -2.4467  -2.1476  -1.8416  -1.8306
     0.9519   3.2568   3.7001   4.7977   4.8989   5.3744   5.5823   5.7322
     6.4679   6.7654   7.1545   8.0707   8.4356   9.5917  10.0649  10.9180

     occupation numbers 
     1.0000   1.0000   1.0000   1.0000   1.0000   1.0000   1.0000   1.0000
     1.0000   0.0000   0.0000   0.0000   0.0000   0.0000   0.0000   0.0000
     0.0000   0.0000   0.0000   0.0000   0.0000   0.0000   0.0000   0.0000

          k = 0.6667 0.8889 0.0000 (  6326 PWs)   bands (ev):

   -12.4953 -12.3509  -3.6287  -3.4767  -2.4985  -2.3614  -2.1114  -2.0075
     1.9002   3.1439   3.9276   4.3672   4.5601   4.8875   5.1354   5.6887
     6.0262   6.5179   7.4834   8.0581   8.3182   8.9888   9.5719  10.5650

     occupation numbers 
     1.0000   1.0000   1.0000   1.0000   1.0000   1.0000   1.0000   1.0000
     0.7986   0.0000   0.0000   0.0000   0.0000   0.0000   0.0000   0.0000
     0.0000   0.0000   0.0000   0.0000   0.0000   0.0000   0.0000   0.0000

          k = 0.7778 0.0000 0.0000 (  6363 PWs)   bands (ev):

   -12.8510 -12.6115  -2.9741  -2.6029  -2.2782  -1.8744  -1.6963  -1.5145
     1.5867   2.4528   2.8946   3.0518   3.1894   4.3392   4.8824   5.8133
     6.0109   6.3901   6.8820   7.1684   7.5079   7.9818   8.1134  10.0326

     occupation numbers 
     1.0000   1.0000   1.0000   1.0000   1.0000   1.0000   1.0000   1.0000
     1.0000   0.0000   0.0000   0.0000   0.0000   0.0000   0.0000   0.0000
     0.0000   0.0000   0.0000   0.0000   0.0000   0.0000   0.0000   0.0000

          k = 0.7778 0.1111 0.0000 (  6350 PWs)   bands (ev):

   -12.7973 -12.5740  -3.0219  -2.6897  -2.1933  -2.1640  -1.7256  -1.5622
     1.5849   2.5877   2.7888   3.4692   3.7439   4.6211   5.0450   5.4186
     5.8105   6.4405   6.6008   7.1933   7.3976   8.3832   8.5654  10.3573

     occupation numbers 
     1.0000   1.0000   1.0000   1.0000   1.0000   1.0000   1.0000   1.0000
     1.0000   0.0000   0.0000   0.0000   0.0000   0.0000   0.0000   0.0000
     0.0000   0.0000   0.0000   0.0000   0.0000   0.0000   0.0000   0.0000

          k = 0.7778 0.2222 0.0000 (  6335 PWs)   bands (ev):

   -12.6613 -12.4831  -3.2146  -3.0182  -2.3468  -2.0031  -1.9173  -1.6527
     1.1163   2.9690   3.6926   4.3446   4.3949   4.5212   5.1908   5.5429
     5.9983   6.1341   6.5433   7.3211   7.6560   9.0056   9.7361  10.9750

     occupation numbers 
     1.0000   1.0000   1.0000   1.0000   1.0000   1.0000   1.0000   1.0000
     1.0000   0.0000   0.0000   0.0000   0.0000   0.0000   0.0000   0.0000
     0.0000   0.0000   0.0000   0.0000   0.0000   0.0000   0.0000   0.0000

          k = 0.7778 0.3333 0.0000 (  6318 PWs)   bands (ev):

   -12.5038 -12.3905  -3.3810  -3.3257  -2.4467  -2.1476  -1.8416  -1.8306
     0.9519   3.2568   3.7001   4.7977   4.8989   5.3744   5.5823   5.7322
     6.4679   6.7654   7.1545   8.0707   8.4356   9.5917  10.0649  10.9180

     occupation numbers 
     1.0000   1.0000   1.0000   1.0000   1.0000   1.0000   1.0000   1.0000
     1.0000   0.0000   0.0000   0.0000   0.0000   0.0000   0.0000   0.0000
     0.0000   0.0000   0.0000   0.0000   0.0000   0.0000   0.0000   0.0000

          k = 0.7778 0.4444 0.0000 (  6313 PWs)   bands (ev):

   -12.3874 -12.3488  -3.4175  -3.4053  -2.5878  -2.4611  -1.8760  -1.8222
     1.3680   2.2359   4.3012   4.8511   5.5379   5.6387   6.1033   6.5191
     7.3211   7.5895   8.0813   8.8778   8.9558   9.1763   9.4246  10.3612

     occupation numbers 
     1.0000   1.0000   1.0000   1.0000   1.0000   1.0000   1.0000   1.0000
     1.0000   0.0040   0.0000   0.0000   0.0000   0.0000   0.0000   0.0000
     0.0000   0.0000   0.0000   0.0000   0.0000   0.0000   0.0000   0.0000

          k = 0.7778 0.5556 0.0000 (  6313 PWs)   bands (ev):

   -12.3874 -12.3488  -3.4175  -3.4053  -2.5878  -2.4611  -1.8760  -1.8222
     1.3680   2.2359   4.3012   4.8511   5.5379   5.6387   6.1033   6.5191
     7.3211   7.5895   8.0813   8.8778   8.9558   9.1763   9.4246  10.3612

     occupation numbers 
     1.0000   1.0000   1.0000   1.0000   1.0000   1.0000   1.0000   1.0000
     1.0000   0.0040   0.0000   0.0000   0.0000   0.0000   0.0000   0.0000
     0.0000   0.0000   0.0000   0.0000   0.0000   0.0000   0.0000   0.0000

          k = 0.7778 0.6667 0.0000 (  6318 PWs)   bands (ev):

   -12.5038 -12.3905  -3.3810  -3.3257  -2.4467  -2.1476  -1.8416  -1.8306
     0.9519   3.2568   3.7001   4.7977   4.8989   5.3744   5.5823   5.7322
     6.4679   6.7654   7.1545   8.0707   8.4356   9.5917  10.0649  10.9180

     occupation numbers 
     1.0000   1.0000   1.0000   1.0000   1.0000   1.0000   1.0000   1.0000
     1.0000   0.0000   0.0000   0.0000   0.0000   0.0000   0.0000   0.0000
     0.0000   0.0000   0.0000   0.0000   0.0000   0.0000   0.0000   0.0000

          k = 0.7778 0.7778 0.0000 (  6335 PWs)   bands (ev):

   -12.6613 -12.4831  -3.2146  -3.0182  -2.3468  -2.0031  -1.9173  -1.6527
     1.1163   2.9690   3.6926   4.3446   4.3949   4.5212   5.1908   5.5429
     5.9983   6.1341   6.5433   7.3211   7.6560   9.0056   9.7361  10.9750

     occupation numbers 
     1.0000   1.0000   1.0000   1.0000   1.0000   1.0000   1.0000   1.0000
     1.0000   0.0000   0.0000   0.0000   0.0000   0.0000   0.0000   0.0000
     0.0000   0.0000   0.0000   0.0000   0.0000   0.0000   0.0000   0.0000

          k = 0.7778 0.8889 0.0000 (  6350 PWs)   bands (ev):

   -12.7973 -12.5740  -3.0219  -2.6897  -2.1933  -2.1640  -1.7256  -1.5622
     1.5849   2.5877   2.7888   3.4692   3.7439   4.6211   5.0450   5.4186
     5.8105   6.4405   6.6008   7.1933   7.3976   8.3832   8.5654  10.3573

     occupation numbers 
     1.0000   1.0000   1.0000   1.0000   1.0000   1.0000   1.0000   1.0000
     1.0000   0.0000   0.0000   0.0000   0.0000   0.0000   0.0000   0.0000
     0.0000   0.0000   0.0000   0.0000   0.0000   0.0000   0.0000   0.0000

          k = 0.8889 0.0000 0.0000 (  6347 PWs)   bands (ev):

   -13.1332 -12.8392  -2.5291  -2.3506  -1.3907  -1.0790  -0.8909  -0.6778
     0.5287   1.8204   2.1228   2.7830   2.9110   3.8385   4.3609   5.0467
     6.0015   6.2123   6.3149   6.5332   6.5432   6.9747   7.6653   9.6189

     occupation numbers 
     1.0000   1.0000   1.0000   1.0000   1.0000   1.0000   1.0000   1.0000
     1.0000   0.9521   0.0699   0.0000   0.0000   0.0000   0.0000   0.0000
     0.0000   0.0000   0.0000   0.0000   0.0000   0.0000   0.0000   0.0000

          k = 0.8889 0.1111 0.0000 (  6361 PWs)   bands (ev):

   -13.0410 -12.7654  -2.6138  -2.3530  -1.5701  -1.4588  -1.4471  -1.0716
     1.1080   2.2329   2.3768   2.5208   3.2540   4.0859   4.5315   5.2363
     6.0331   6.2941   6.3499   6.5149   6.6805   7.4373   7.9928   9.8444

     occupation numbers 
     1.0000   1.0000   1.0000   1.0000   1.0000   1.0000   1.0000   1.0000
     1.0000   0.0044   0.0000   0.0000   0.0000   0.0000   0.0000   0.0000
     0.0000   0.0000   0.0000   0.0000   0.0000   0.0000   0.0000   0.0000

          k = 0.8889 0.2222 0.0000 (  6350 PWs)   bands (ev):

   -12.7973 -12.5740  -3.0219  -2.6897  -2.1933  -2.1640  -1.7256  -1.5622
     1.5849   2.5877   2.7888   3.4692   3.7439   4.6211   5.0450   5.4186
     5.8105   6.4405   6.6008   7.1933   7.3976   8.3832   8.5654  10.3573

     occupation numbers 
     1.0000   1.0000   1.0000   1.0000   1.0000   1.0000   1.0000   1.0000
     1.0000   0.0000   0.0000   0.0000   0.0000   0.0000   0.0000   0.0000
     0.0000   0.0000   0.0000   0.0000   0.0000   0.0000   0.0000   0.0000

          k = 0.8889 0.3333 0.0000 (  6326 PWs)   bands (ev):

   -12.4953 -12.3509  -3.6287  -3.4767  -2.4985  -2.3614  -2.1114  -2.0075
     1.9002   3.1439   3.9276   4.3672   4.5601   4.8875   5.1354   5.6887
     6.0262   6.5179   7.4834   8.0581   8.3182   8.9888   9.5719  10.5650

     occupation numbers 
     1.0000   1.0000   1.0000   1.0000   1.0000   1.0000   1.0000   1.0000
     0.7986   0.0000   0.0000   0.0000   0.0000   0.0000   0.0000   0.0000
     0.0000   0.0000   0.0000   0.0000   0.0000   0.0000   0.0000   0.0000

          k = 0.8889 0.4444 0.0000 (  6319 PWs)   bands (ev):

   -12.2661 -12.2163  -3.9948  -3.9506  -2.7158  -2.6522  -2.2324  -2.2036
     2.5016   3.3093   4.1135   4.6320   5.2763   5.4890   5.6607   6.0812
     6.9105   7.0437   7.5421   8.6545   8.9774   9.0208   9.2077  10.2861

     occupation numbers 
     1.0000   1.0000   1.0000   1.0000   1.0000   1.0000   1.0000   1.0000
     0.0000   0.0000   0.0000   0.0000   0.0000   0.0000   0.0000   0.0000
     0.0000   0.0000   0.0000   0.0000   0.0000   0.0000   0.0000   0.0000

          k = 0.8889 0.5556 0.0000 (  6319 PWs)   bands (ev):

   -12.2661 -12.2163  -3.9948  -3.9506  -2.7158  -2.6522  -2.2324  -2.2036
     2.5016   3.3093   4.1135   4.6320   5.2763   5.4890   5.6607   6.0812
     6.9105   7.0437   7.5421   8.6545   8.9774   9.0208   9.2077  10.2861

     occupation numbers 
     1.0000   1.0000   1.0000   1.0000   1.0000   1.0000   1.0000   1.0000
     0.0000   0.0000   0.0000   0.0000   0.0000   0.0000   0.0000   0.0000
     0.0000   0.0000   0.0000   0.0000   0.0000   0.0000   0.0000   0.0000

          k = 0.8889 0.6667 0.0000 (  6326 PWs)   bands (ev):

   -12.4953 -12.3509  -3.6287  -3.4767  -2.4985  -2.3614  -2.1114  -2.0075
     1.9002   3.1439   3.9276   4.3672   4.5601   4.8875   5.1354   5.6887
     6.0262   6.5179   7.4834   8.0581   8.3182   8.9888   9.5719  10.5650

     occupation numbers 
     1.0000   1.0000   1.0000   1.0000   1.0000   1.0000   1.0000   1.0000
     0.7986   0.0000   0.0000   0.0000   0.0000   0.0000   0.0000   0.0000
     0.0000   0.0000   0.0000   0.0000   0.0000   0.0000   0.0000   0.0000

          k = 0.8889 0.7778 0.0000 (  6350 PWs)   bands (ev):

   -12.7973 -12.5740  -3.0219  -2.6897  -2.1933  -2.1640  -1.7256  -1.5622
     1.5849   2.5877   2.7888   3.4692   3.7439   4.6211   5.0450   5.4186
     5.8105   6.4405   6.6008   7.1933   7.3976   8.3832   8.5654  10.3573

     occupation numbers 
     1.0000   1.0000   1.0000   1.0000   1.0000   1.0000   1.0000   1.0000
     1.0000   0.0000   0.0000   0.0000   0.0000   0.0000   0.0000   0.0000
     0.0000   0.0000   0.0000   0.0000   0.0000   0.0000   0.0000   0.0000

          k = 0.8889 0.8889 0.0000 (  6361 PWs)   bands (ev):

   -13.0410 -12.7654  -2.6138  -2.3530  -1.5701  -1.4588  -1.4471  -1.0716
     1.1080   2.2329   2.3768   2.5208   3.2540   4.0859   4.5315   5.2363
     6.0331   6.2941   6.3499   6.5149   6.6805   7.4373   7.9928   9.8444

     occupation numbers 
     1.0000   1.0000   1.0000   1.0000   1.0000   1.0000   1.0000   1.0000
     1.0000   0.0044   0.0000   0.0000   0.0000   0.0000   0.0000   0.0000
     0.0000   0.0000   0.0000   0.0000   0.0000   0.0000   0.0000   0.0000

     the Fermi energy is     1.9807 ev

     Writing output data file ZrN.save/
 
     init_run     :      0.08s CPU      0.13s WALL (       1 calls)
     electrons    :      5.43s CPU      5.70s WALL (       1 calls)

     Called by init_run:
     wfcinit      :      0.00s CPU      0.02s WALL (       1 calls)
     wfcinit:atom :      0.01s CPU      0.01s WALL (      11 calls)
     wfcinit:wfcr :      0.33s CPU      0.37s WALL (      11 calls)
     potinit      :      0.01s CPU      0.02s WALL (       1 calls)
     hinit0       :      0.03s CPU      0.03s WALL (       1 calls)

     Called by electrons:
     c_bands      :      5.42s CPU      5.69s WALL (       1 calls)
     v_of_rho     :      0.01s CPU      0.01s WALL (       1 calls)
     v_h          :      0.00s CPU      0.00s WALL (       1 calls)
     v_xc         :      0.01s CPU      0.01s WALL (       1 calls)

     Called by c_bands:
     init_us_2    :      0.00s CPU      0.00s WALL (      11 calls)
     cegterg      :      3.94s CPU      4.09s WALL (      30 calls)

     Called by sum_band:

     Called by *egterg:
     h_psi        :      2.42s CPU      2.56s WALL (     561 calls)
     g_psi        :      0.02s CPU      0.03s WALL (     520 calls)
     cdiaghg      :      1.11s CPU      1.14s WALL (     531 calls)
     cegterg:over :      0.28s CPU      0.29s WALL (     520 calls)
     cegterg:upda :      0.23s CPU      0.23s WALL (     520 calls)
     cegterg:last :      0.11s CPU      0.11s WALL (      87 calls)
     cdiaghg:chol :      0.06s CPU      0.06s WALL (     531 calls)
     cdiaghg:inve :      0.02s CPU      0.02s WALL (     531 calls)
     cdiaghg:para :      0.13s CPU      0.13s WALL (    1062 calls)

     Called by h_psi:
     h_psi:pot    :      2.41s CPU      2.55s WALL (     561 calls)
     h_psi:calbec :      0.13s CPU      0.14s WALL (     561 calls)
     vloc_psi     :      2.20s CPU      2.32s WALL (     561 calls)
     add_vuspsi   :      0.08s CPU      0.09s WALL (     561 calls)

     General routines
     calbec       :      0.13s CPU      0.13s WALL (     561 calls)
     fft          :      0.01s CPU      0.01s WALL (      10 calls)
     fftw         :      1.99s CPU      2.11s WALL (   12812 calls)
     davcio       :      0.00s CPU      0.01s WALL (      22 calls)
 
     Parallel routines
     fft_scatt_xy :      0.29s CPU      0.30s WALL (   12822 calls)
     fft_scatt_yz :      0.53s CPU      0.57s WALL (   12822 calls)
 
     PWSCF        :      5.82s CPU      6.53s WALL

 
   This run was terminated on:  20:32:39  13Nov2019            

=------------------------------------------------------------------------------=
   JOB DONE.
=------------------------------------------------------------------------------=
