File written on 13Nov2019 at 20:32:42 

calc_only_A  :  F

begin real_lattice
   3.1507436   0.0000000   0.0000000
   0.0000000   3.1507436   0.0000000
   0.0000000   0.0000000  15.8347918
end real_lattice

begin recip_lattice
   1.9941913   0.0000000   0.0000000
   0.0000000   1.9941913   0.0000000
   0.0000000   0.0000000   0.3967962
end recip_lattice

begin kpoints
    81
    0.00000000    0.00000000    0.00000000
    0.00000000    0.11111111    0.00000000
    0.00000000    0.22222222    0.00000000
    0.00000000    0.33333333    0.00000000
    0.00000000    0.44444444    0.00000000
    0.00000000    0.55555556    0.00000000
    0.00000000    0.66666667    0.00000000
    0.00000000    0.77777778    0.00000000
    0.00000000    0.88888889    0.00000000
    0.11111111    0.00000000    0.00000000
    0.11111111    0.11111111    0.00000000
    0.11111111    0.22222222    0.00000000
    0.11111111    0.33333333    0.00000000
    0.11111111    0.44444444    0.00000000
    0.11111111    0.55555556    0.00000000
    0.11111111    0.66666667    0.00000000
    0.11111111    0.77777778    0.00000000
    0.11111111    0.88888889    0.00000000
    0.22222222    0.00000000    0.00000000
    0.22222222    0.11111111    0.00000000
    0.22222222    0.22222222    0.00000000
    0.22222222    0.33333333    0.00000000
    0.22222222    0.44444444    0.00000000
    0.22222222    0.55555556    0.00000000
    0.22222222    0.66666667    0.00000000
    0.22222222    0.77777778    0.00000000
    0.22222222    0.88888889    0.00000000
    0.33333333    0.00000000    0.00000000
    0.33333333    0.11111111    0.00000000
    0.33333333    0.22222222    0.00000000
    0.33333333    0.33333333    0.00000000
    0.33333333    0.44444444    0.00000000
    0.33333333    0.55555556    0.00000000
    0.33333333    0.66666667    0.00000000
    0.33333333    0.77777778    0.00000000
    0.33333333    0.88888889    0.00000000
    0.44444444    0.00000000    0.00000000
    0.44444444    0.11111111    0.00000000
    0.44444444    0.22222222    0.00000000
    0.44444444    0.33333333    0.00000000
    0.44444444    0.44444444    0.00000000
    0.44444444    0.55555556    0.00000000
    0.44444444    0.66666667    0.00000000
    0.44444444    0.77777778    0.00000000
    0.44444444    0.88888889    0.00000000
    0.55555556    0.00000000    0.00000000
    0.55555556    0.11111111    0.00000000
    0.55555556    0.22222222    0.00000000
    0.55555556    0.33333333    0.00000000
    0.55555556    0.44444444    0.00000000
    0.55555556    0.55555556    0.00000000
    0.55555556    0.66666667    0.00000000
    0.55555556    0.77777778    0.00000000
    0.55555556    0.88888889    0.00000000
    0.66666667    0.00000000    0.00000000
    0.66666667    0.11111111    0.00000000
    0.66666667    0.22222222    0.00000000
    0.66666667    0.33333333    0.00000000
    0.66666667    0.44444444    0.00000000
    0.66666667    0.55555556    0.00000000
    0.66666667    0.66666667    0.00000000
    0.66666667    0.77777778    0.00000000
    0.66666667    0.88888889    0.00000000
    0.77777778    0.00000000    0.00000000
    0.77777778    0.11111111    0.00000000
    0.77777778    0.22222222    0.00000000
    0.77777778    0.33333333    0.00000000
    0.77777778    0.44444444    0.00000000
    0.77777778    0.55555556    0.00000000
    0.77777778    0.66666667    0.00000000
    0.77777778    0.77777778    0.00000000
    0.77777778    0.88888889    0.00000000
    0.88888889    0.00000000    0.00000000
    0.88888889    0.11111111    0.00000000
    0.88888889    0.22222222    0.00000000
    0.88888889    0.33333333    0.00000000
    0.88888889    0.44444444    0.00000000
    0.88888889    0.55555556    0.00000000
    0.88888889    0.66666667    0.00000000
    0.88888889    0.77777778    0.00000000
    0.88888889    0.88888889    0.00000000
end kpoints

begin projections
    16
   1.00000    1.00000    0.43217     2  1  1
    0.0000000  0.0000000  1.0000000   1.0000000  0.0000000  0.0000000    1.00
   1.00000    1.00000    0.43217     2  2  1
    0.0000000  0.0000000  1.0000000   1.0000000  0.0000000  0.0000000    1.00
   1.00000    1.00000    0.43217     2  3  1
    0.0000000  0.0000000  1.0000000   1.0000000  0.0000000  0.0000000    1.00
   1.00000    1.00000    0.43217     2  4  1
    0.0000000  0.0000000  1.0000000   1.0000000  0.0000000  0.0000000    1.00
   1.00000    1.00000    0.43217     2  5  1
    0.0000000  0.0000000  1.0000000   1.0000000  0.0000000  0.0000000    1.00
   0.50000    0.50000    0.56782     2  1  1
    0.0000000  0.0000000  1.0000000   1.0000000  0.0000000  0.0000000    1.00
   0.50000    0.50000    0.56782     2  2  1
    0.0000000  0.0000000  1.0000000   1.0000000  0.0000000  0.0000000    1.00
   0.50000    0.50000    0.56782     2  3  1
    0.0000000  0.0000000  1.0000000   1.0000000  0.0000000  0.0000000    1.00
   0.50000    0.50000    0.56782     2  4  1
    0.0000000  0.0000000  1.0000000   1.0000000  0.0000000  0.0000000    1.00
   0.50000    0.50000    0.56782     2  5  1
    0.0000000  0.0000000  1.0000000   1.0000000  0.0000000  0.0000000    1.00
   1.00000    1.00000    0.58526     1  1  1
    0.0000000  0.0000000  1.0000000   1.0000000  0.0000000  0.0000000    1.00
   1.00000    1.00000    0.58526     1  2  1
    0.0000000  0.0000000  1.0000000   1.0000000  0.0000000  0.0000000    1.00
   1.00000    1.00000    0.58526     1  3  1
    0.0000000  0.0000000  1.0000000   1.0000000  0.0000000  0.0000000    1.00
   0.50000    0.50000    0.41475     1  1  1
    0.0000000  0.0000000  1.0000000   1.0000000  0.0000000  0.0000000    1.00
   0.50000    0.50000    0.41475     1  2  1
    0.0000000  0.0000000  1.0000000   1.0000000  0.0000000  0.0000000    1.00
   0.50000    0.50000    0.41475     1  3  1
    0.0000000  0.0000000  1.0000000   1.0000000  0.0000000  0.0000000    1.00
end projections

begin nnkpts
   6
     1     2      0   0   0
     1    10      0   0   0
     1     9      0  -1   0
     1    73     -1   0   0
     1     1      0   0   1
     1     1      0   0  -1
     2     1      0   0   0
     2     3      0   0   0
     2    11      0   0   0
     2    74     -1   0   0
     2     2      0   0   1
     2     2      0   0  -1
     3     2      0   0   0
     3     4      0   0   0
     3    12      0   0   0
     3    75     -1   0   0
     3     3      0   0   1
     3     3      0   0  -1
     4     3      0   0   0
     4     5      0   0   0
     4    13      0   0   0
     4    76     -1   0   0
     4     4      0   0   1
     4     4      0   0  -1
     5     4      0   0   0
     5     6      0   0   0
     5    14      0   0   0
     5    77     -1   0   0
     5     5      0   0   1
     5     5      0   0  -1
     6     5      0   0   0
     6     7      0   0   0
     6    15      0   0   0
     6    78     -1   0   0
     6     6      0   0   1
     6     6      0   0  -1
     7     6      0   0   0
     7     8      0   0   0
     7    16      0   0   0
     7    79     -1   0   0
     7     7      0   0   1
     7     7      0   0  -1
     8     7      0   0   0
     8     9      0   0   0
     8    17      0   0   0
     8    80     -1   0   0
     8     8      0   0   1
     8     8      0   0  -1
     9     8      0   0   0
     9    18      0   0   0
     9     1      0   1   0
     9    81     -1   0   0
     9     9      0   0   1
     9     9      0   0  -1
    10     1      0   0   0
    10    11      0   0   0
    10    19      0   0   0
    10    18      0  -1   0
    10    10      0   0   1
    10    10      0   0  -1
    11     2      0   0   0
    11    10      0   0   0
    11    12      0   0   0
    11    20      0   0   0
    11    11      0   0   1
    11    11      0   0  -1
    12     3      0   0   0
    12    11      0   0   0
    12    13      0   0   0
    12    21      0   0   0
    12    12      0   0   1
    12    12      0   0  -1
    13     4      0   0   0
    13    12      0   0   0
    13    14      0   0   0
    13    22      0   0   0
    13    13      0   0   1
    13    13      0   0  -1
    14     5      0   0   0
    14    13      0   0   0
    14    15      0   0   0
    14    23      0   0   0
    14    14      0   0   1
    14    14      0   0  -1
    15     6      0   0   0
    15    14      0   0   0
    15    16      0   0   0
    15    24      0   0   0
    15    15      0   0   1
    15    15      0   0  -1
    16     7      0   0   0
    16    15      0   0   0
    16    17      0   0   0
    16    25      0   0   0
    16    16      0   0   1
    16    16      0   0  -1
    17     8      0   0   0
    17    16      0   0   0
    17    18      0   0   0
    17    26      0   0   0
    17    17      0   0   1
    17    17      0   0  -1
    18     9      0   0   0
    18    17      0   0   0
    18    27      0   0   0
    18    10      0   1   0
    18    18      0   0   1
    18    18      0   0  -1
    19    10      0   0   0
    19    20      0   0   0
    19    28      0   0   0
    19    27      0  -1   0
    19    19      0   0   1
    19    19      0   0  -1
    20    11      0   0   0
    20    19      0   0   0
    20    21      0   0   0
    20    29      0   0   0
    20    20      0   0   1
    20    20      0   0  -1
    21    12      0   0   0
    21    20      0   0   0
    21    22      0   0   0
    21    30      0   0   0
    21    21      0   0   1
    21    21      0   0  -1
    22    13      0   0   0
    22    21      0   0   0
    22    23      0   0   0
    22    31      0   0   0
    22    22      0   0   1
    22    22      0   0  -1
    23    14      0   0   0
    23    22      0   0   0
    23    24      0   0   0
    23    32      0   0   0
    23    23      0   0   1
    23    23      0   0  -1
    24    15      0   0   0
    24    23      0   0   0
    24    25      0   0   0
    24    33      0   0   0
    24    24      0   0   1
    24    24      0   0  -1
    25    16      0   0   0
    25    24      0   0   0
    25    26      0   0   0
    25    34      0   0   0
    25    25      0   0   1
    25    25      0   0  -1
    26    17      0   0   0
    26    25      0   0   0
    26    27      0   0   0
    26    35      0   0   0
    26    26      0   0   1
    26    26      0   0  -1
    27    18      0   0   0
    27    26      0   0   0
    27    36      0   0   0
    27    19      0   1   0
    27    27      0   0   1
    27    27      0   0  -1
    28    19      0   0   0
    28    29      0   0   0
    28    37      0   0   0
    28    36      0  -1   0
    28    28      0   0   1
    28    28      0   0  -1
    29    20      0   0   0
    29    28      0   0   0
    29    30      0   0   0
    29    38      0   0   0
    29    29      0   0   1
    29    29      0   0  -1
    30    21      0   0   0
    30    29      0   0   0
    30    31      0   0   0
    30    39      0   0   0
    30    30      0   0   1
    30    30      0   0  -1
    31    22      0   0   0
    31    30      0   0   0
    31    32      0   0   0
    31    40      0   0   0
    31    31      0   0   1
    31    31      0   0  -1
    32    23      0   0   0
    32    31      0   0   0
    32    33      0   0   0
    32    41      0   0   0
    32    32      0   0   1
    32    32      0   0  -1
    33    24      0   0   0
    33    32      0   0   0
    33    34      0   0   0
    33    42      0   0   0
    33    33      0   0   1
    33    33      0   0  -1
    34    25      0   0   0
    34    33      0   0   0
    34    35      0   0   0
    34    43      0   0   0
    34    34      0   0   1
    34    34      0   0  -1
    35    26      0   0   0
    35    34      0   0   0
    35    36      0   0   0
    35    44      0   0   0
    35    35      0   0   1
    35    35      0   0  -1
    36    27      0   0   0
    36    35      0   0   0
    36    45      0   0   0
    36    28      0   1   0
    36    36      0   0   1
    36    36      0   0  -1
    37    28      0   0   0
    37    38      0   0   0
    37    46      0   0   0
    37    45      0  -1   0
    37    37      0   0   1
    37    37      0   0  -1
    38    29      0   0   0
    38    37      0   0   0
    38    39      0   0   0
    38    47      0   0   0
    38    38      0   0   1
    38    38      0   0  -1
    39    30      0   0   0
    39    38      0   0   0
    39    40      0   0   0
    39    48      0   0   0
    39    39      0   0   1
    39    39      0   0  -1
    40    31      0   0   0
    40    39      0   0   0
    40    41      0   0   0
    40    49      0   0   0
    40    40      0   0   1
    40    40      0   0  -1
    41    32      0   0   0
    41    40      0   0   0
    41    42      0   0   0
    41    50      0   0   0
    41    41      0   0   1
    41    41      0   0  -1
    42    33      0   0   0
    42    41      0   0   0
    42    43      0   0   0
    42    51      0   0   0
    42    42      0   0   1
    42    42      0   0  -1
    43    34      0   0   0
    43    42      0   0   0
    43    44      0   0   0
    43    52      0   0   0
    43    43      0   0   1
    43    43      0   0  -1
    44    35      0   0   0
    44    43      0   0   0
    44    45      0   0   0
    44    53      0   0   0
    44    44      0   0   1
    44    44      0   0  -1
    45    36      0   0   0
    45    44      0   0   0
    45    54      0   0   0
    45    37      0   1   0
    45    45      0   0   1
    45    45      0   0  -1
    46    37      0   0   0
    46    47      0   0   0
    46    55      0   0   0
    46    54      0  -1   0
    46    46      0   0   1
    46    46      0   0  -1
    47    38      0   0   0
    47    46      0   0   0
    47    48      0   0   0
    47    56      0   0   0
    47    47      0   0   1
    47    47      0   0  -1
    48    39      0   0   0
    48    47      0   0   0
    48    49      0   0   0
    48    57      0   0   0
    48    48      0   0   1
    48    48      0   0  -1
    49    40      0   0   0
    49    48      0   0   0
    49    50      0   0   0
    49    58      0   0   0
    49    49      0   0   1
    49    49      0   0  -1
    50    41      0   0   0
    50    49      0   0   0
    50    51      0   0   0
    50    59      0   0   0
    50    50      0   0   1
    50    50      0   0  -1
    51    42      0   0   0
    51    50      0   0   0
    51    52      0   0   0
    51    60      0   0   0
    51    51      0   0   1
    51    51      0   0  -1
    52    43      0   0   0
    52    51      0   0   0
    52    53      0   0   0
    52    61      0   0   0
    52    52      0   0   1
    52    52      0   0  -1
    53    44      0   0   0
    53    52      0   0   0
    53    54      0   0   0
    53    62      0   0   0
    53    53      0   0   1
    53    53      0   0  -1
    54    45      0   0   0
    54    53      0   0   0
    54    63      0   0   0
    54    46      0   1   0
    54    54      0   0   1
    54    54      0   0  -1
    55    46      0   0   0
    55    56      0   0   0
    55    64      0   0   0
    55    63      0  -1   0
    55    55      0   0   1
    55    55      0   0  -1
    56    47      0   0   0
    56    55      0   0   0
    56    57      0   0   0
    56    65      0   0   0
    56    56      0   0   1
    56    56      0   0  -1
    57    48      0   0   0
    57    56      0   0   0
    57    58      0   0   0
    57    66      0   0   0
    57    57      0   0   1
    57    57      0   0  -1
    58    49      0   0   0
    58    57      0   0   0
    58    59      0   0   0
    58    67      0   0   0
    58    58      0   0   1
    58    58      0   0  -1
    59    50      0   0   0
    59    58      0   0   0
    59    60      0   0   0
    59    68      0   0   0
    59    59      0   0   1
    59    59      0   0  -1
    60    51      0   0   0
    60    59      0   0   0
    60    61      0   0   0
    60    69      0   0   0
    60    60      0   0   1
    60    60      0   0  -1
    61    52      0   0   0
    61    60      0   0   0
    61    62      0   0   0
    61    70      0   0   0
    61    61      0   0   1
    61    61      0   0  -1
    62    53      0   0   0
    62    61      0   0   0
    62    63      0   0   0
    62    71      0   0   0
    62    62      0   0   1
    62    62      0   0  -1
    63    54      0   0   0
    63    62      0   0   0
    63    72      0   0   0
    63    55      0   1   0
    63    63      0   0   1
    63    63      0   0  -1
    64    55      0   0   0
    64    65      0   0   0
    64    73      0   0   0
    64    72      0  -1   0
    64    64      0   0   1
    64    64      0   0  -1
    65    56      0   0   0
    65    64      0   0   0
    65    66      0   0   0
    65    74      0   0   0
    65    65      0   0   1
    65    65      0   0  -1
    66    57      0   0   0
    66    65      0   0   0
    66    67      0   0   0
    66    75      0   0   0
    66    66      0   0   1
    66    66      0   0  -1
    67    58      0   0   0
    67    66      0   0   0
    67    68      0   0   0
    67    76      0   0   0
    67    67      0   0   1
    67    67      0   0  -1
    68    59      0   0   0
    68    67      0   0   0
    68    69      0   0   0
    68    77      0   0   0
    68    68      0   0   1
    68    68      0   0  -1
    69    60      0   0   0
    69    68      0   0   0
    69    70      0   0   0
    69    78      0   0   0
    69    69      0   0   1
    69    69      0   0  -1
    70    61      0   0   0
    70    69      0   0   0
    70    71      0   0   0
    70    79      0   0   0
    70    70      0   0   1
    70    70      0   0  -1
    71    62      0   0   0
    71    70      0   0   0
    71    72      0   0   0
    71    80      0   0   0
    71    71      0   0   1
    71    71      0   0  -1
    72    63      0   0   0
    72    71      0   0   0
    72    81      0   0   0
    72    64      0   1   0
    72    72      0   0   1
    72    72      0   0  -1
    73    64      0   0   0
    73    74      0   0   0
    73     1      1   0   0
    73    81      0  -1   0
    73    73      0   0   1
    73    73      0   0  -1
    74    65      0   0   0
    74    73      0   0   0
    74    75      0   0   0
    74     2      1   0   0
    74    74      0   0   1
    74    74      0   0  -1
    75    66      0   0   0
    75    74      0   0   0
    75    76      0   0   0
    75     3      1   0   0
    75    75      0   0   1
    75    75      0   0  -1
    76    67      0   0   0
    76    75      0   0   0
    76    77      0   0   0
    76     4      1   0   0
    76    76      0   0   1
    76    76      0   0  -1
    77    68      0   0   0
    77    76      0   0   0
    77    78      0   0   0
    77     5      1   0   0
    77    77      0   0   1
    77    77      0   0  -1
    78    69      0   0   0
    78    77      0   0   0
    78    79      0   0   0
    78     6      1   0   0
    78    78      0   0   1
    78    78      0   0  -1
    79    70      0   0   0
    79    78      0   0   0
    79    80      0   0   0
    79     7      1   0   0
    79    79      0   0   1
    79    79      0   0  -1
    80    71      0   0   0
    80    79      0   0   0
    80    81      0   0   0
    80     8      1   0   0
    80    80      0   0   1
    80    80      0   0  -1
    81    72      0   0   0
    81    80      0   0   0
    81     9      1   0   0
    81    73      0   1   0
    81    81      0   0   1
    81    81      0   0  -1
end nnkpts

begin exclude_bands
   0
end exclude_bands
